
 7686  0.0000000e+00
  25.7562854  33.4131968  16.8667879  26.2003115  33.5789822  17.7586714
  25.7786078  34.2309821  16.2744798  26.2714715  32.6498417  16.4520927
  24.3813670  32.9421712  17.0597977  23.7734035  33.7558173  17.4553484
  23.8460029  32.6571223  15.6623379  24.3708748  31.8118073  15.2173075
  22.7836805  32.4134580  15.6764403  23.8465765  33.8001057  14.8661612
  23.6931127  33.5349037  13.9563718  24.3133995  31.6840650  17.8708344
  25.2105863  30.8945023  17.8377261  23.2723842  31.4810963  18.6334474
  22.7174443  32.3064965  18.8091067  23.0974694  30.3084083  19.4876706
  23.7260943  29.5408678  19.0362149  23.6781627  30.6397257  20.8306436
  24.7451875  30.8220577  20.7029207  23.2499899  31.5030368  21.3400178
  23.6838798  29.5132534  21.9439811  22.7325549  29.4975542  22.4758029
  24.0122895  28.2041358  21.2854564  24.9141586  28.3597700  20.6934183
  24.3208334  27.4434625  22.0025876  23.2106830  27.9338353  20.5980953
  24.8675995  29.8218737  22.8821169  25.8221668  29.7117368  22.3675585
  24.7572309  30.7791393  23.3915887  24.7607591  29.0480736  23.6423262
  21.5757174  29.9828866  19.5776373  20.8186247  30.6864193  20.1764001
  21.1212809  28.8905518  18.9325181  21.8591245  28.3897602  18.4582875
  19.7406904  28.2994817  18.9030118  19.1320089  28.9648660  18.2907451
  19.7528174  26.9492505  18.2363069  18.7125752  26.6307972  18.1686032
  20.1968381  26.9175243  17.2413497  20.2261527  26.2989208  18.9719183
  19.1086041  28.3318724  20.3581042  19.8130368  28.2574884  21.3376444
  17.7627736  28.2772929  20.4091018  17.2133776  28.2031338  19.5648480
  16.8986231  28.4282767  21.6009431  17.0702041  27.7138170  22.4060563
  17.0368360  29.8402276  22.2288925  18.0525815  29.9763673  22.6001434
  16.8625932  30.6215527  21.4891152  16.1446942  30.1432272  23.4259144
  15.4990439  29.2073978  24.2533579  14.6829080  29.9603611  25.0773344
  14.0640896  29.5157232  25.8426847  14.9098369  31.2806440  24.8640426
  14.5577547  32.0298187  25.4427267  15.9148120  31.3863872  23.9107319
  16.2493322  32.3114392  23.4648901  15.4356329  28.2251246  21.2066636
  14.7914186  27.3168451  21.6948742  14.8421883  29.2110277  20.6032442
  15.3887700  30.0568065  20.5257418  13.3995722  29.3381911  20.2722275
  12.8129066  29.1069792  21.1613082  13.0794139  30.8618673  19.8516700
  13.5953253  31.1130447  18.9249309  12.0101438  31.0562495  19.7681412
  13.5301169  31.6872861  20.9232592  12.9279188  31.7217870  21.6700973
  12.9624800  28.3503857  19.2566296  13.3986176  28.4442765  18.1254575
  12.1249838  27.4558783  19.5636967  19.4348161  15.3099724  25.1926512
  20.4110379  15.4303744  25.4219857  19.2562975  14.3245950  25.0612641
  18.8384910  15.6561241  25.9306725  19.1704093  16.2155998  23.9958314
  19.8742797  15.8584132  23.2441106  17.7316379  16.2404933  23.4230232
  17.0030849  16.2766951  24.2329614  17.5303197  17.1779552  22.9046256
  17.3374092  14.9619467  22.5332121  17.6354236  14.0366249  23.0262303
  15.8321815  15.0704617  22.2731855  15.2268903  14.9505107  23.1717032
  15.5493474  15.9262495  21.6602158  15.5620656  14.2104236  21.6604284
  18.2012537  14.9426822  21.3110547  19.2780558  15.1067330  21.3520997
  17.9955408  14.0397774  20.7361242  17.7971990  15.7418995  20.6896922
  19.4482247  17.6853983  24.3381939  19.2769854  18.1614119  25.4275281
  19.9209417  18.4342617  23.3452592  20.0442668  17.9979245  22.4427622
  20.2287447  19.8815174  23.4343578  21.1020782  20.0192402  24.0718693
  20.5315963  20.4523118  22.0030869  19.6030863  20.3709006  21.4379840
  20.9352357  21.8406325  22.0594959  21.1268658  22.1027048  21.0189691
  20.0779037  22.4596777  22.3238155  21.7838410  22.0177068  22.7202634
  21.6874728  19.7386599  21.2693812  21.2078925  18.8821394  20.7955928
  22.1754679  20.3546977  20.5140944  22.4671753  19.3331248  21.9141332
  19.1406278  20.7378680  24.1047747  19.4297823  21.6219887  24.9171283
  17.8512355  20.6198780  23.6528594  17.6376128  19.9350728  22.9418691
  16.7235611  21.3313009  24.1975676  16.8949534  22.3790912  23.9508691
  15.4319368  20.8550180  23.5231316  15.5347938  21.0442015  22.4546139
  14.9507672  19.3909999  23.7362237  14.0842431  19.2809471  23.0842079
  15.7870393  18.8327879  23.3153337  14.6847186  19.1737537  24.7706909
  14.3561757  21.5065124  24.1526782  13.5693466  21.0930272  23.7900077
  16.5992146  21.2261161  25.8011553  17.1270123  20.3016050  26.4414203
  15.8690997  22.1303043  26.4663317  15.3794301  22.8031483  25.8939641
  15.8389556  22.4309747  27.8825945  16.0443742  21.4919237  28.3964879
  16.8572202  23.5421852  28.2349370  16.4436228  24.4701232  27.8400087
  16.9375470  23.7222074  29.3069629  18.3205881  23.3310822  27.7885711
  18.6636807  22.4832822  28.3815488  18.4046096  23.2044386  26.7092186
  19.1476044  24.5460504  28.0997757  19.9980062  24.5365497  27.4179938
  18.5275046  25.4313082  27.9587268  19.6240388  24.4656058  29.5551321
  18.7342624  24.3631645  30.1763437  20.3347269  23.6500547  29.6889184
  20.4552356  25.6739372  29.8698035  19.8388153  26.4555925  29.6990972
  20.8271902  25.5872423  30.8048085  21.2193177  25.9460741  29.2679568
  14.4151435  22.6073854  28.3763037  14.3023794  22.9851957  29.5554837
  13.3542875  22.4594360  27.6113918  13.5647471  22.1207645  26.6834325
  11.9521058  22.6550709  27.9738083  11.7272766  23.7164501  28.0788141
  11.1419468  22.1979974  26.7863677  11.4220374  21.2099213  26.4211898
  11.4091716  22.8826378  25.9814091   9.5881277  22.2784093  26.8206354
   9.1697348  21.7006092  27.6447680   9.0272794  23.6704315  27.0423949
   9.4737638  23.9754141  27.9888289   9.4062123  24.3104765  26.2456187
   7.9386589  23.6263493  27.0098057   8.8347577  21.7089434  25.6177673
   9.0947050  20.6510921  25.5793330   7.7845585  21.6416695  25.9017624
   9.0259913  22.2921823  24.7170100  11.4994726  21.9689958  29.2466816
  11.9188563  20.8051761  29.4649970  10.9417568  22.6392931  30.1348983
  16.7611258  24.1418673  21.3852674  15.3027988  24.0399271  22.3301723
  16.1640765  24.9513812  23.6223450  17.4801905  25.1501987  23.2803860
  17.7816783  24.7023298  22.0646653  19.1170080  24.8662028  21.4931275
  20.1208719  25.1857808  22.3190196  19.8536528  25.2914108  23.8299955
  18.4755488  25.8508760  24.1731963  16.6254652  23.5246459  19.7725579
  17.8510957  23.6486906  19.0404742  15.9638180  22.2066644  19.8349857
  15.5118142  24.6580180  19.0291220  15.5852267  25.4934985  24.8213876
  14.1844562  25.5023478  25.1597333  13.3418586  24.8176399  24.5888746
  13.9391972  26.2605861  26.2539258  16.1963310  26.0356185  25.4207470
  14.7599357  26.7166407  26.6346839  12.7683026  26.4232238  27.0626364
  11.4674727  26.2059476  26.5419599  12.9290551  27.0439580  28.2126524
  10.3857753  26.5662595  27.4135417  11.8781135  27.4260703  29.0704525
  10.5748648  27.0913475  28.7193882  12.3074107  28.3857356  30.5910931
  19.2640717  24.8135733  20.4158928  21.1172137  25.3955065  21.9349657
  19.7943184  24.2582191  24.1965726  20.6320895  25.8587866  24.3567833
  18.3299729  25.7549630  25.2571673  18.4743066  26.8874835  23.8114948
  15.5363812  24.4147709  17.9598136  14.5485858  24.5601977  19.5446941
  16.0269176  25.6231970  19.1084239  11.3203814  25.9074497  25.5082001
  13.9551252  27.1805309  28.5411703   9.3529987  26.4314496  27.1059792
   9.7336981  27.3109625  29.3702367  24.5040969  -6.3066393 -13.1274274
  27.2572768   1.0829626  30.7392102  -3.6510682  13.8305344  46.4658488
  17.2676167   2.4257266  21.5642648  15.2319234 -12.6845157  36.1542636
  29.5033035  22.8552884  25.3659536  26.2570284  23.8893645  45.8651934
  35.0850561  -0.2098152  37.5101453  60.9229801 -16.4135135  41.2570191
  16.7900123  -4.7995705  13.1157796  14.2631811  -2.2553366  27.1855454
   1.5150458  12.1886623  34.3115884  18.5380107  27.9278873  78.6380420
  33.0736474  56.5221418   9.9457699  27.2116396   4.3248014  35.7253100
 -26.1213222  34.9250416  64.3877500 -26.0676032  34.2366854  63.8544400
 -26.9249764  34.8636001  64.7216728 -26.2321031  34.8142810  64.3582964
  26.6377122  54.8299749  13.8338780  26.9680366  55.6106312  13.6274776
  26.1412708  54.6287274  13.1452672  26.6131733  54.9155655  13.7016664
  13.2459176  31.1779050  69.4592790  13.5968805  31.9104107  69.1408454
  12.7679187  30.8741289  68.7956701  13.2271517  31.2412372  69.3142111
  59.1552265  41.9209703  73.0780578  58.7355543  41.2094523  73.3586942
  59.1957732  42.4281141  73.7867896  59.0992219  41.8907800  73.2242079
   6.8067865  29.1503076  44.8625885   6.7292424  28.7326824  45.6246355
   6.3977612  29.9082890  45.0015201   6.7349102  29.2005853  44.9956816
  27.9629447  27.5644966  31.4547534  28.1559812  27.9274718  30.6852564
  28.5892831  26.9668121  31.5625170  28.0839833  27.5298252  31.3570017
  49.9574157  -8.2248381  36.5513584  50.5240369  -7.6381830  36.2416555
  49.2886675  -8.1787605  35.9929748  49.9423295  -8.1313704  36.4231242
  59.4465008  -4.3866242  22.5882349  59.7414036  -4.6369018  21.8062291
  58.9085842  -3.7253231  22.4025844  59.4106026  -4.3259076  22.4452921
  11.5997118  44.5130818  32.7432536  11.4157167  43.6759295  32.5805845
  11.7289963  44.5308243  33.6058719  11.5916299  44.3920381  32.8466505
  66.3363728  55.3671214  64.6663555  65.7397660  54.9497666  65.1469954
  66.7076265  54.7293288  64.2010267  66.3030835  55.2112544  64.6686173
  -1.1415821  56.5079436  22.3072930  -0.5033283  56.9057997  22.7494267
  -1.4062321  57.1144785  21.7387727  -1.0863931  56.6563129  22.2886231
  44.1655689 -19.6037049  73.5173678  44.2051801 -19.0718042  74.2077677
  43.4536759 -20.0845554  73.6694555  44.0662590 -19.5961637  73.6418206
   1.6442457  45.5343320  36.9355058   1.9696758  46.3372046  36.8324023
   1.6111240  45.4360975  37.8017578   1.6874257  45.6384216  37.0482386
  39.1338483  26.5257640  57.9109791  38.7484148  27.0639610  58.4792437
  39.7238406  27.0327805  57.5160324  39.1640658  26.6801636  57.9365817
   5.4881681  68.0146089  29.6610943   5.7558816  67.9400162  30.4880797
   5.5482011  68.8703932  29.5024474   5.5365831  68.1300070  29.7598217
  27.3136792  25.8815115  33.8571913  27.8708454  25.7160266  33.2065606
  27.6677675  25.4699993  34.5401398  27.4482903  25.7962771  33.8619653
  10.2575033  89.0435545  50.7775210   9.6847094  89.1040738  50.1222470
  10.7105574  89.7871536  50.7232807  10.2398153  89.1623394  50.6727111
  -5.2468122   4.2038491  34.3231759  -5.1181469   4.9055029  34.8254375
  -6.0965484   4.0331765  34.4229693  -5.3533292   4.2822859  34.4121118
  12.3352762 -21.7917863  40.2434081  12.6079118 -21.9379031  41.0591650
  11.4898373 -21.5998107  40.3409682  12.2506614 -21.7850120  40.3783238
  23.0226963   7.0762617  -3.4251320  22.7655510   7.8916355  -3.5988600
  23.6867248   6.9487274  -3.9764401  23.0828013   7.1778697  -3.5322348
  50.6455854  38.2632473   9.7642158  50.1744821  38.2092102   9.0319036
  50.2495180  38.8952932  10.2167509  50.5174864  38.3486311   9.7228869
  78.3457186   5.0226664   9.2580090  78.9460700   5.5934154   8.9842149
  77.6360124   5.2344313   8.7969100  78.3295646   5.1382598   9.1494502
  38.5955910  24.8692296  28.5088877  39.2092748  24.6970105  29.1045992
  37.9996544  24.2461635  28.6422585  38.5982126  24.7517496  28.6165882
  57.3405879  30.0741936  33.4055010  57.2595911  29.2116744  33.3023524
  57.9863813  30.2864344  32.8586516  57.4240200  29.9781341  33.3094829
  31.0614648  36.2251238  21.0733645  30.2011482  36.2192354  20.9285881
  31.4008998  36.0009917  20.3015561  30.9845198  36.1911451  20.9379660
  53.2320944  15.3554432   8.7796142  54.0411139  15.0402977   8.6941139
  53.0721125  15.2808218   9.6340011  53.3279706  15.2978666   8.8931946
  30.0878949  50.9125258 -18.9359711  29.6758259  51.6448733 -19.1705044
  30.8350548  51.1996952 -18.5889477  30.1373947  51.0631295 -18.9193540
  32.0009649  31.3836089   0.3981703  31.5144212  31.6118344  -0.2890908
  31.4278367  31.3567482   1.0553933  31.8444295  31.4133546   0.3937331
  26.7902137  39.8230011  27.5329307  27.2370588  39.7832132  28.2811860
  26.9610857  39.0574440  27.1510083  26.8814633  39.7040350  27.5870456
  32.3258223  -9.5632084  23.2335426  32.5660436 -10.3961734  23.3315349
  32.7381399  -9.1529521  23.8837915  32.4222157  -9.6256512  23.3440733
  69.0928564  67.5760337  15.7988210  69.7332615  67.0720560  15.4873290
  69.3502699  67.7550308  16.6129695  69.2254827  67.5280274  15.8730737
   8.4160167   8.4516487  20.1327901   8.5348562   9.2435649  19.7865452
   8.7927006   8.5121778  20.9173823   8.4892157   8.5775725  20.1975430
   2.5686417   9.1327093  12.7754193   2.6639387   9.6319278  13.4845306
   2.2223795   9.6759767  12.1871144   2.5315690   9.2867059  12.7932649
  20.8441524  45.3079954   8.2143140  21.5043873  44.9252965   8.6371271
  20.4114740  45.7267035   8.8456717  20.8777672  45.3133147   8.3700368
  24.1981856  45.8406504   3.0298653  23.9463926  45.0360760   2.8053660
  24.6827287  45.7122040   3.7439094  24.2325675  45.7028240   3.1021811
  84.2575056  16.1373421  92.2847873  84.7671008  15.9466589  91.6028106
  83.8168455  16.8425015  92.0207636  84.2676887  16.2133408  92.1450435
  19.8775172  36.7850523  72.0325592  20.6363263  36.5144757  72.3674273
  19.2819937  36.3338394  72.4830015  19.9016379  36.6784291  72.1485657
  23.6325339  27.4561054   3.8339416  23.5847124  28.2490919   4.1945314
  23.2763738  26.9350542   4.4362664  23.5728575  27.4962759   3.9761839
  -0.1173402  50.9462253  -8.9885802   0.4270748  50.3290126  -8.6990974
  -0.2997508  50.6931502  -9.8033310  -0.0638647  50.8176659  -9.0661731
  59.9037602   2.0135407  -2.5669651  60.1472903   2.8511451  -2.5511056
  59.3846230   1.9376200  -1.8699198  59.8630474   2.1260571  -2.4616544
  69.2770648  10.4194876  -5.4004386  70.0972134  10.3125609  -5.6780398
  69.0449770  11.1897109  -5.7381232  69.3639335  10.5174702  -5.4913290
  45.4997617  28.9596747 -26.3905875  45.8967292  29.1785185 -27.1360161
  44.8957525  28.3823706 -26.6416501  45.4691773  28.9067227 -26.5377898
  -5.3969381   4.9523128  49.8972397  -5.8760703   4.2574855  49.6763622
  -4.6079093   4.6154358  50.0556285  -5.3511599   4.7999088  49.8880088
  70.0632789  18.0578678  43.5502508  70.1799275  17.5151893  42.8771739
  69.7961799  18.7978865  43.1731963  70.0410543  18.0870190  43.3951248
  46.1594071  11.4029387  29.0728553  46.3680358  12.2493041  29.0370898
  46.5383596  11.0680381  28.3619572  46.2462049  11.4784926  28.9625577
  14.8633204   0.1159255  -2.7283085  15.4981403  -0.2176156  -2.2314246
  15.1701840   0.0271051  -3.5401492  15.0024265   0.0535340  -2.7748341
  76.2068930  -1.8533179  22.2328113  76.4786088  -2.6821780  22.2501587
  75.3380914  -1.9230148  22.1945266  76.1186911  -1.9860533  22.2297185
  23.7789023  34.5967321  -4.3614331  23.2095372  35.1188304  -4.7668666
  24.4798602  35.1042451  -4.2508527  23.7983413  34.7488269  -4.4049890
   6.6058518 -13.9468540  78.8048004   6.4503487 -13.5692066  79.5757354
   5.9161301 -13.7186355  78.3217477   6.4809947 -13.8573551  78.8473265
  18.9633283  40.1749887  52.4207395  19.6111533  40.7592317  52.4318054
  19.1428743  39.6828013  51.7231334  19.0855480  40.1885872  52.3193234
  42.2523963  44.2955842  19.6643649  42.0282293  44.3600425  20.5050395
  42.3112047  43.4350828  19.5331455  42.2279695  44.1779922  19.7691661
   3.4815605  62.3065477  36.2392479   3.2362172  62.7998075  36.9157396
   4.0912853  62.7892838  35.8438481   3.5353871  62.4507224  36.2807710
  54.4043466  43.8041006  25.2051177  53.9661669  44.5167387  25.4526755
  54.7879141  43.5333747  25.9404564  54.3962793  43.8693801  25.3503118
 -15.4772222  51.0610493  14.5882502 -14.9072384  51.6322758  14.9198496
 -15.8243744  50.6842337  15.2943910 -15.4443054  51.0897678  14.7415458
  57.1158364  22.1184502  45.1755157  56.2527533  22.0027821  45.2288826
  57.2542285  22.2395319  44.3226814  57.0087846  22.1192499  45.0574179
  28.7086323  35.8966464  29.3119150  28.5500021  35.1302243  29.6973669
  29.5494944  36.0458409  29.4903285  28.8094120  35.8054692  29.3952095
  27.0915764  28.4635710   8.8663608  27.4363917  29.1407063   8.4377238
  26.2739028  28.4246647   8.5646396  27.0217255  28.5578505   8.7584719
  18.9562234  38.4477176  -0.7986307  18.1944663  38.0233580  -0.8266415
  18.7995904  39.1149788  -0.2588454  18.8205583  38.4835992  -0.7230310
  36.7131600  33.0661225  52.8096821  36.8010920  33.5420414  52.0837973
  37.3281641  33.3851555  53.3398966  36.8169982  33.1835533  52.7807776
  10.0162071  28.8964133 -21.9256083  10.7606241  28.4590536 -21.8003109
   9.6726503  28.5182470 -22.6327848  10.0754225  28.7759433 -22.0115639
  34.9034819  33.6694685  -3.6751839  35.7635240  33.5396114  -3.6073287
  34.7159785  33.3859318  -4.4786693  35.0028297  33.6084017  -3.7838516
  -2.7669762  16.7313833  10.9484315  -3.4470429  16.4001262  11.3830779
  -2.7168175  16.2321684  10.2347032  -2.8600266  16.6087055  10.9072053
  40.3097675   4.9072026  59.3302222  40.4540550   4.7540295  58.4835471
  39.9426239   5.6986023  59.3358522  40.2768471   5.0014818  59.2059825
  26.2526146  44.2810244  19.8279865  25.4097735  44.0807277  19.7248372
  26.6368427  43.9140513  19.1360046  26.1848680  44.1972269  19.7105293
  51.6684190  34.9908113  13.4311147  51.6690946  34.1941158  13.7866642
  52.4835485  35.0836868  13.1343362  51.7889302  34.8868426  13.4397964
  38.4308024   8.0653429  53.3928849  39.1815333   8.4650892  53.5871670
  37.8318488   8.5355679  53.8186577  38.4532230   8.1938556  53.4844798
  26.4061589  13.3348904  24.4202803  26.2843909  13.4145042  23.5600630
  25.5993854  13.3903701  24.7476608  26.2689942  13.3548465  24.3415693
  33.5242914  42.3269309 -24.8997459  34.0227310  42.4442936 -24.1934007
  33.4871020  41.4592469 -24.9826967  33.5924275  42.2160930 -24.8076577
  77.4770307  27.5716597  34.4773785  76.8576495  27.8926770  33.9534947
  78.2165419  27.8850059  34.1366779  77.4947764  27.6653683  34.3496616
  49.4633813   8.3457944  -2.6231612  49.5535378   9.0401597  -2.1027112
  49.6764735   8.6516213  -3.4119584  49.5081773   8.4935434  -2.6628016
  12.6619451  19.2012981  42.7689990  12.7158951  19.6643527  43.5064333
  12.8129117  19.7916129  42.1445977  12.6922155  19.3569025  42.7856963
  31.0250837  11.1622919  19.0456707  30.8170823  11.1623109  18.1983957
  30.2551087  11.2521803  19.4459183  30.8806164  11.1755730  18.9796355
  19.5530301  34.0267595  49.6868878  20.3405555  33.8599632  49.3505512
  19.7210059  34.2038105  50.5244894  19.6941773  34.0282743  49.7609349
  22.6537882  24.6001749  19.6585397  22.9432113  24.5769603  20.4812395
  23.3834520  24.6769325  19.1864818  22.8043284  24.6080843  19.7103367
  54.8301501  93.6855493  -9.7869273  55.1525026  93.7224474  -8.9770712
  54.6796334  94.5215045  -9.9860837  54.8555338  93.8144877  -9.6967144
  59.7162683  -1.6466998  26.1313658  59.3184915  -1.2304042  26.7868131
  60.5098558  -1.8197246  26.4498321  59.7747377  -1.6107637  26.2752329
  63.6624069  54.4616864 -18.7077493  62.9287814  54.5075052 -18.2378197
  63.8931058  55.2968465 -18.8098532  63.5881143  54.5918252 -18.6534138
  60.1301974   8.9824693  36.6987923  59.3076021   8.8534250  36.9592230
  60.3180043   9.7795177  36.9997608  60.0364261   9.0811473  36.7817225
  39.2777217  54.2766338  68.3406763  39.8404144  53.6311739  68.1736493
  39.3342601  54.3794762  69.2051798  39.3691949  54.1964780  68.4437080
  22.0499071   9.8656568  11.8208343  22.2928302   9.2680157  11.2335073
  21.3443428  10.2317168  11.4612253  21.9815655   9.8314475  11.6809523
  22.4557584  59.0737374  13.9195091  22.3007277  59.5759381  13.2231619
  23.1879144  58.6493411  13.7074360  22.5410117  59.0852307  13.7853167
  -6.2744607  15.8898197  36.9734054  -5.7754486  16.5726089  37.1877075
  -6.9526357  16.2526115  36.5615799  -6.3009267  16.0442735  36.9442272
  12.0458376   3.0191906 -18.7841313  12.3648435   3.7577034 -19.1217311
  11.3605325   3.2871510 -18.3154164  11.9917276   3.1678674 -18.7647629
  42.3285989  30.6194892  32.6294224  42.0006060  30.7520012  31.8319259
  43.1513418  30.3739675  32.4746553  42.4016837  30.6027953  32.4887535
  30.9939712   3.1766109  69.9399826  30.9664429   3.2242179  69.0692845
  31.1938911   2.3413901  70.0935334  31.0194370   3.0602641  69.8340452
  -4.4266018  31.1426241  24.4227458  -4.2909212  31.0332840  25.2775996
  -3.8660777  30.5855156  24.0531753  -4.3237580  31.0441759  24.4944322
  52.3550223  36.6078261  42.4103035  52.0408720  36.2197057  41.6948933
  52.0311973  36.1279556  43.0629912  52.2607802  36.4796060  42.4010381
  28.7672520  43.3695587  37.3616821  28.9067018  43.1893845  38.2038404
  28.3373876  42.6684931  37.0703691  28.7243518  43.2393814  37.4430533
  16.0717500  31.2744022  33.2208725  16.9353406  31.1523382  33.2421137
  15.8785815  31.2260786  32.3714666  16.1707851  31.2492324  33.0985355
  15.3976133  87.0739093  15.0133343  14.5587419  87.1047503  15.2509960
  15.5563710  87.8786932  14.7162511  15.2971465  87.1973483  15.0045566
 -16.5333596  37.0655008  77.4210548 -16.9269676  37.4142132  78.1171954
 -15.7490312  37.4475267  77.4160824 -16.4756421  37.1734459  77.5231546
  71.1031601  62.0012788  -9.9352896  71.6240801  62.2114312  -9.2677435
  71.2770417  62.6136633 -10.5318547  71.2057966  62.1227844  -9.9248043
  13.5876742  45.4863619 -46.7196111  13.6366429  45.9019844 -45.9541050
  12.8123656  45.0876231 -46.6873078  13.4803788  45.4888560 -46.6017582
  43.7720851  19.4155031  -1.0688258  44.0915718  19.4111155  -1.8806438
  43.4826973  20.2321797  -0.9666805  43.7765313  19.5354949  -1.1736591
 -21.6756834  43.4479434 -24.1754385 -21.9443301  43.2874879 -24.9898232
 -22.3076357  43.1068638 -23.6800188 -21.8087204  43.3738563 -24.2225562
 -27.9200303  92.9734789   6.1445509 -27.7591689  93.7825718   6.4285083
 -28.5062277  92.6688481   6.7143862 -27.9828612  93.0479983   6.2706737
  27.2919199  -3.9139143  12.6945120  26.7821072  -4.3901348  12.1706373
  26.9669567  -3.1077410  12.6195253  27.1686063  -3.8651735  12.6060478
  51.6734044  43.1446320 -43.4227744  51.7094382  43.4284406 -42.5985816
  50.9215827  43.4726137 -43.7199807  51.5676678  43.2350060 -43.3449276
  70.5686179   7.2538196  14.4980228  71.1418816   6.7562551  14.9280668
  70.0627078   7.5775262  15.1308013  70.5785674   7.2281372  14.6550236
  34.2973605  -1.7620029   0.9178144  34.4872175  -1.2073097   0.2717422
  34.5062181  -2.5417006   0.5867713  34.3562589  -1.7952407   0.7734743
  33.4224726  15.8506581  20.4862933  32.8853251  15.2279898  20.1949236
  33.4233505  15.7328105  21.3507299  33.3432545  15.7412687  20.5709471
  72.1580066  25.4151046  48.8636918  73.0124076  25.4567861  48.6922239
  71.7857272  25.5698542  48.0899992  72.2292259  25.4441216  48.7240721
  45.7141602  39.5221354 -45.9153197  45.1755317  40.1287183 -46.2363741
  45.3378199  38.7700575 -46.1474541  45.5790004  39.5006428 -45.9970370
  37.6005109 -22.6826846  16.2600624  38.3862460 -22.4020040  16.0051541
  37.7243266 -23.5337525  16.4066657  37.7348703 -22.7669425  16.2440635
   5.5398712   9.3345338  12.2489378   4.7402478   9.6790319  12.1935929
   5.4525180   8.5519487  11.8733455   5.4088465   9.2698193  12.1852795
  43.2063887  23.2431234 -45.8012129  42.6657763  23.9246650 -45.8673857
  43.3774331  23.0356318 -46.6311710  43.1517959  23.3131504 -45.9335899
  33.5904682  62.9343137   4.8808654  33.9170831  63.4920379   5.4668739
  34.2881483  62.4814494   4.6176242  33.7417777  62.9498037   4.9285447
  37.2769171  97.2280534 -24.9431904  37.5512222  96.9085285 -25.7072585
  37.9272139  97.7543071 -24.6955805  37.4134998  97.2585915 -25.0194819
  19.0722594  -6.6961989  11.7317193  19.4762412  -6.2232103  11.1199840
  18.5324393  -6.1245341  12.1097843  19.0521933  -6.5418821  11.6972014
  39.2824960  31.5473133  62.1225966  39.6951774  30.8310206  61.8437444
  39.7741263  32.1996744  61.8162240  39.4160815  31.5378693  62.0361468
  24.5065999  11.4137419  63.4836864  23.6586463  11.4762573  63.2882229
  24.6427817  10.5534342  63.5333320  24.4014565  11.2958916  63.4621461
  17.9380935   2.5872492  23.8761171  18.7822774   2.7689438  24.0005366
  17.7079242   2.1709081  24.6074321  18.0287961   2.5525871  24.0025267
  31.0028232   5.6684160 -48.7720205  30.6275209   6.3605832 -48.3962650
  31.8392091   5.9046595 -48.8480933  31.0709347   5.8055614 -48.7277512
  69.5228710  41.2876929  -4.6463200  69.9902054  41.9681416  -4.9286812
  68.8743490  41.2291534  -5.2269505  69.4961059  41.3795617  -4.7738017
   6.5554604  58.8400371  18.6751456   6.3034756  58.7747442  17.8424511
   5.8028960  58.8682532  19.1155889   6.4070678  58.8345601  18.6172020
  24.5818831  27.1566622  -4.9830341  23.8051988  27.5384941  -4.8730095
  24.4216481  26.5310590  -5.5696215  24.4434808  27.1206522  -5.0534323
  -0.3836843  46.9075965   3.0683086  -0.4973738  46.1916144   3.5536784
   0.4720809  47.0648871   3.1320673  -0.2740644  46.8250663   3.1494262
  -4.7967603  11.4663855  43.2892912  -4.0851953  11.8509554  43.6162786
  -4.5179757  11.1256057  42.5361061  -4.6504652  11.4728542  43.2263330
  10.8594226  71.6238892  -5.7341909  11.3596361  71.8791615  -5.0665367
  11.3640131  71.7607608  -6.4326135  11.0078529  71.6818170  -5.7387360
   4.4530553  10.9561142  36.0637278   3.7668195  11.4161299  35.7833609
   5.0656189  11.5626619  36.1979116   4.4421724  11.1136676  36.0421336
  12.9129398  31.6883928  48.0018027  12.5259089  32.1856963  47.3984488
  12.4205820  31.8071899  48.7121621  12.7830360  31.7794036  48.0176096
  12.4928367  51.6384965 -13.2007129  12.8445191  51.4835973 -12.4174727
  11.8498958  52.2026442 -13.0289459  12.4498118  51.6989510 -13.0596386
  63.5614622 -40.8441866   7.1451366  63.8129343 -40.0104555   7.1979915
  64.2980250 -41.2899484   7.2862436  63.7074153 -40.7868756   7.1737888
  51.2642563  12.0422014   3.0883248  50.4129838  11.8724306   3.1758038
  51.5140625  12.2596461   3.8954519  51.1754073  12.0492438   3.2204765
  37.4747751  30.1301582  -2.6474628  38.1811411  30.0705900  -2.1388980
  37.5708439  30.9021413  -3.0423708  37.5933112  30.2353966  -2.6306733
  40.1089197  35.9483283  22.2572664  39.2611673  36.1129134  22.1333022
  40.4965212  36.3544703  21.5894690  40.0409459  36.0326365  22.1403069
  36.3774102  16.7499059  22.2215985  37.2095792  16.7854314  22.4811602
  36.0973589  17.5705662  22.3176580  36.4589693  16.8763822  22.2741311
  34.8672632  36.8226870  73.0876706  34.8951836  37.4072640  73.7346866
  34.0131970  36.6974003  72.9611255  34.7452245  36.8905336  73.1645549
  16.6879112  20.7521423  33.8628105  16.2781932  20.0507064  34.1810214
  17.4732391  20.7203435  34.2414772  16.7433965  20.6438284  33.9657537
   9.4860931  11.6794712  23.9526506   8.9048473  11.1595708  23.5615031
  10.0955612  11.8027232  23.3406889   9.4902621  11.6208780  23.8044707
 -33.5606864  27.8875866  -8.7374147 -34.1276525  27.4720820  -9.2541785
 -32.8768077  27.3467562  -8.7065616 -33.5434160  27.7463162  -8.8091937
  24.4826751 -32.8622300  52.4350058  24.3943099 -32.1272063  52.8966022
  24.3609288 -33.4918324  53.0265446  24.4516373 -32.8466571  52.5905755
   6.2592636  38.8498928   5.2447229   6.1965921  39.1680933   4.4348092
   5.5072527  38.4217450   5.3556669   6.1389182  38.8336513   5.1414706
 -10.0309357  77.7518234  31.8507966 -10.4381668  77.2995998  32.4759335
  -9.2544673  77.9358515  32.2034580  -9.9763918  77.7122054  31.9952376
  16.7402701  41.7464844  46.5851871  16.4822194  42.2278256  47.2655253
  17.2502755  42.2896403  46.1312977  16.7774890  41.8978237  46.6186383
  56.1394117  10.4124909  34.9551750  56.9871932  10.4895816  35.1461282
  56.1354679  10.2637709  34.0955202  56.2640639  10.4019098  34.8563940
  82.5561397   9.4281401  44.4682901  82.4628921   8.8210772  45.0879021
  82.3960051   8.9931508  43.7291820  82.5187099   9.2742075  44.4506380
  51.8457571  10.9896770  -7.7538754  51.9109120  10.3641774  -7.1491898
  52.0186316  10.5722823  -8.5002236  51.8809189  10.8356200  -7.7748019
  36.7356857 -17.3875574  71.6638637  36.2193679 -17.0101038  72.2572306
  36.9885173 -16.7223826  71.1591280  36.6967634 -17.2335397  71.6769564
  13.3551735 -53.5492646   8.1848031  12.9366659 -53.6724430   8.9403280
  13.5363766 -52.6958608   8.1874417  13.3201187 -53.4413952   8.2967995
  42.8791159  42.3157832  25.2576210  42.8310078  41.9789064  26.0609511
  42.0494627  42.3222071  24.9878549  42.7494525  42.2669685  25.3364394
   6.9592417  53.1714793  55.0185990   7.6762300  52.8921027  54.6074835
   7.1855834  53.1533566  55.8609650   7.0985910  53.1275325  55.0823035
  72.9170249  22.3244515  -4.8131855  72.5965455  22.3537783  -4.0022771
  73.7041015  22.6928455  -4.7361414  72.9859509  22.3832031  -4.6820166
 -27.6024270  -1.9733500  28.9362008 -26.8713445  -1.5413006  29.1361787
 -27.8906037  -1.5681299  28.2193393 -27.5370007  -1.8496681  28.8598464
  39.9282789  21.3499002  67.6320230  40.1804293  22.1850763  67.6384025
  40.6752856  20.9108662  67.5301919  40.0758750  21.4084186  67.6179229
  39.2137395  36.8340522  13.6524222  39.1926520  37.6894516  13.4821678
  40.0217871  36.7049760  13.9549746  39.3299898  36.9413451  13.6719654
  29.1943762  13.1223239  30.6222213  29.3753496  13.9748771  30.5829645
  29.3023809  12.8516200  29.7999112  29.2370642  13.2082750  30.4949501
  34.1986353  10.8590386  21.5584715  33.3444201  10.9163075  21.7263295
  34.2764700  10.0920223  21.1501001  34.0839479  10.7541942  21.5229427
  32.7166088   9.4512532  38.8237066  32.2750840  10.1451644  38.5327039
  32.2457598   9.1799882  39.5062431  32.5818324   9.5136868  38.8815442
  63.7173324  40.9933473  55.6108432  64.5571854  40.9721120  55.3756083
  63.7451286  40.9075898  56.4786061  63.8455021  40.9775423  55.7042806
  47.5725932  -4.7704066  63.5682228  46.7534446  -4.6592406  63.8471083
  47.5461470  -4.4974153  62.7400225  47.4476814  -4.7136587  63.4870777
  28.9788839  29.0808107  46.4119048  28.2274279  29.0437511  46.8535833
  29.5347893  28.6348182  46.9150940  28.9499970  29.0094540  46.5514812
  26.8870786  38.7097580 -20.6697587  26.1550203  38.5634546 -21.1212291
  27.1731772  39.4716240 -20.9841585  26.8212011  38.8006893 -20.7828935
  18.9227820  44.8830308  -3.1306264  19.0379008  44.8589815  -2.2661561
  18.1063175  45.1769769  -3.2207424  18.8191788  44.9229001  -3.0162383
  21.4482568  47.5611819  60.7579376  20.9186108  48.0041325  60.2246372
  21.3590418  46.7340706  60.4951313  21.3568383  47.5044334  60.6403363
  -1.5320418  19.4570788  79.9325967  -1.1479254  18.7305754  80.2254908
  -2.3830586  19.2951356  80.0359614  -1.6010126  19.3258370  79.9911323
  -3.1898893  13.8172447  20.3830863  -3.5785247  13.0676623  20.1634771
  -3.8260329  14.4090139  20.3039019  -3.3412703  13.7939324  20.3389483
  25.5967949  10.8845084  42.0633416  25.2707133  10.3427458  42.6644270
  25.0609475  11.5722709  42.0948043  25.4694702  10.9060756  42.1567820
  21.8537057  14.7481262  22.5214717  22.3904709  14.7204193  21.8342636
  22.3708115  15.0051903  23.1754282  22.0093842  14.7820070  22.5165597
  60.9394751  41.4398019  25.0434959  61.0940194  41.1071398  25.8350713
  60.1243196  41.1827901  24.8685502  60.8418892  41.3526949  25.1345848
  80.4331582   6.5529576  46.1980006  79.7793345   6.5835249  45.6211820
  81.1228696   6.3258020  45.7144327  80.4384595   6.5239174  46.0413597
  36.3249051  10.2168217  18.3852782  36.7749990  10.4983287  19.0775995
  35.7107914  10.8271237  18.2778748  36.3006760  10.3485603  18.4716826
  49.4082487  13.8687410 -10.8597512  49.7205213  13.0541102 -10.8583126
  50.0761670  14.3449839 -10.5627372  49.5530431  13.8187541 -10.8156636
  25.1519413   1.7865012  29.6748481  24.3025480   1.6570089  29.5235130
  25.3357281   2.5032206  29.2125978  25.0536175   1.8732468  29.5842089
  54.8750077  37.6017238 -12.0908360  54.9812187  38.4612482 -11.9855907
  54.0347219  37.4733003 -11.8944518  54.7665697  37.7097225 -12.0462791
   7.7451629  57.1220818 -10.3719463   7.9261635  57.7687511  -9.8149929
   6.9730458  57.3506337 -10.7077124   7.6578428  57.2513700 -10.3392724
  47.3626519  14.1989209  34.3703248  48.0926082  13.7379849  34.2444621
  47.0951302  14.3845338  33.5609302  47.4309630  14.1582500  34.2321680
  47.3402536   8.4922512  31.3336872  47.4890604   8.9739076  30.6216457
  48.1257637   8.4321354  31.7085197  47.4782714   8.5545214  31.2838744
  11.3358530   1.8333315  44.3696614  10.6684041   2.2680348  44.0137337
  11.9871038   1.9572026  43.8025036  11.3334602   1.9158444  44.2333026
 -15.1543588  62.2632530  24.7411122 -14.3769385  62.5728485  24.4943169
 -15.6665063  62.9695391  24.7389702 -15.1151725  62.4133197  24.7043390
  60.5966656  16.0853822 -12.2616126  59.7789824  16.1127161 -12.5645757
  60.5622366  16.5664075 -11.5345851  60.4707910  16.1604773 -12.1989695
  54.7268054  -4.8240498  29.9387789  54.9591295  -4.0110481  29.7238526
  53.9227552  -4.9015431  29.6091767  54.6423497  -4.7154001  29.8583408
  20.0617667  55.0570337  -7.2029639  20.8115650  54.8005922  -6.8380259
  19.4575303  54.8147198  -6.6221697  20.0832692  54.9833572  -7.0632598
  28.3572968 -39.6493336  18.0153895  28.8393505 -39.4456768  18.7134495
  28.3191752 -40.5205990  18.0395329  28.4228747 -39.7479531  18.1220738
   9.7748357  54.3252176  58.8353012   9.1290234  54.8909380  58.9903055
  10.1344318  54.2041293  59.6209015   9.7325557  54.3908989  58.9742479
  40.7704767  32.8403014  37.2385215  40.7528477  31.9786845  37.3743343
  40.9779604  32.9106502  36.3940446  40.7985222  32.7234148  37.1338372
  58.0355974 -10.5755271   8.3566993  57.5646892  -9.8851108   8.1062790
  57.8031788 -11.1982338   7.7915821  57.9317015 -10.5655250   8.2362276
  44.6079486  -4.6045982  18.9870675  44.1422287  -3.9722910  18.6070252
  44.0357100  -4.9867567  19.5233858  44.4546208  -4.5676461  19.0101527
  24.2337428   4.7030575 -39.3255746  23.8764729   3.9463992 -39.0786617
  24.2666363   4.6402908 -40.1951250  24.1858257   4.5820115 -39.4175510
  38.6296363  -4.2504671  30.2127927  38.5964991  -3.7704801  29.4850195
  39.4414166  -4.1229227  30.5058535  38.7446579  -4.1607222  30.1485768
  48.7745404  13.1574240  49.6129074  48.3757488  13.8727251  49.3121597
  49.6183131  13.3791758  49.6165388  48.8402733  13.2958460  49.5690172
  63.6055853  45.3950553  24.0457750  62.8465426  45.1789651  23.6738895
  63.8418565  44.6684712  24.4669531  63.5283612  45.2558029  24.0530565
   7.9581370  33.6865339  14.3049019   7.9036814  33.5885480  15.1701030
   7.3903400  33.1006131  13.9959635   7.8662175  33.5855068  14.3870734
  33.8164716  17.4810056  44.9286733  33.6329167  16.6281253  44.9351666
  33.0647839  17.8507595  44.6849781  33.6783170  17.4096379  44.8936337
  65.9050206  11.9288255  -9.1392937  66.5452604  12.4116643  -9.4829493
  65.9487243  11.1814293  -9.5872093  66.0060531  11.8897449  -9.2562251
  39.3669643 -34.0099578   8.1579755  39.4461907 -33.1444668   8.0818966
  38.5970021 -34.1791048   7.7842283  39.2649284 -33.9070934   8.0915269
  44.7973151  14.2068546 -10.4149132  45.5886464  14.4341186 -10.1263209
  44.3155931  14.1740156  -9.6882736  44.8430508  14.2355752 -10.2649425
  56.0066605  25.1449674   3.1986254  56.2798692  24.9734022   2.3880318
  55.4108105  24.5258511   3.3496131  55.9589997  25.0281675   3.1011880
  20.0621022  11.0268891  35.0988643  20.2336052  11.8822257  35.0876605
  20.8415522  10.6595815  34.9621813  20.2025775  11.0989810  35.0770184
  52.0855143  37.2407042  65.7175628  51.5709234  36.5649031  65.5184933
  52.8480998  36.8663373  65.9161885  52.1221482  37.0855728  65.7174972
  46.5321360  17.5896832   5.9570643  46.4120625  17.4917438   5.0985017
  46.6518877  18.4487640   6.0507620  46.5320885  17.7021195   5.8440780
  57.4639526   3.1342042  90.6766460  57.3297083   3.9645125  90.4449002
  56.7365357   2.7285648  90.4169137  57.3366675   3.1969365  90.6040446
  67.1341766  40.1207553 -17.4772607  66.8595519  40.7213860 -16.9072049
  66.6707631  39.4119306 -17.2676062  67.0251531  40.1047728 -17.3620814
  65.0928389  -3.8269765  -9.0885260  65.3428194  -4.6545675  -8.9712981
  64.3083273  -3.9007454  -9.4630113  65.0138776  -3.9601260  -9.1265282
  23.5850107 -16.4991038  70.2601387  23.9662096 -15.7354246  70.0795258
  23.1583913 -16.6944453  69.5246272  23.5783011 -16.4151486  70.1248082
  51.2204339 -16.4613950  39.9045517  51.2130095 -17.2903612  39.6327072
  50.4057771 -16.1884855  39.7529130  51.0989955 -16.5435360  39.8419945
  52.1211295  32.5584526  14.3721772  52.9425973  32.8266173  14.2521027
  52.2001418  31.9059285  14.9458574  52.2541490  32.5016748  14.4391841
  43.5185945  24.4774180  30.9925706  43.8662961  23.6993596  30.8058402
  44.2025575  25.0185431  30.9698124  43.6709926  24.4424181  30.9616248
  16.8591452  -1.1255724  39.9955972  16.9119202  -0.9096543  40.8392403
  17.0464851  -1.9776346  39.9898206  16.8946151  -1.2195440  40.1193674
  17.3127051  66.3704822   8.4180117  16.7849846  66.4034887   9.1119578
  17.3262503  67.1943246   8.1312369  17.2367508  66.4970565   8.4781593
  24.5898376 -16.8029188  48.2807703  23.8961164 -16.2755893  48.2381788
  24.8537782 -16.8620627  47.4513266  24.5263501 -16.7337581  48.1519528
  10.1479930  32.3627470  35.2857448   9.9521970  33.2019527  35.4218966
  10.5682228  32.1294162  36.0138267  10.1811465  32.4522472  35.4134099
  69.4156916  12.6310555   9.2983651  69.1765094  13.0542809  10.0228040
  68.7723401  12.8071725   8.7360296  69.2853232  12.7195907   9.3223111
 -28.7051227  60.6532255 -30.0090243 -28.6682783  61.5032246 -29.8159349
 -27.8749871  60.4452123 -30.1785677 -28.5770519  60.7480601 -30.0055461
 -38.9377593  18.1345867   2.0498012 -38.4841296  17.6761970   2.6373713
 -39.7590979  17.8659844   2.1697813 -38.9920775  18.0271950   2.1543210
  42.1707469  62.7329056  -0.1629592  42.6063717  63.3047520   0.3313710
  42.6656681  62.0151587  -0.1308373  42.3082077  62.7113531  -0.0851914
  91.4908667  -8.0666423  34.1657867  90.8025821  -7.5504525  34.3105349
  92.0844398  -7.7824882  34.7385579  91.4768759  -7.9484150  34.2717791
  75.8740870  -4.8280847  57.4690732  75.8717375  -4.9215197  58.3364854
  75.2784972  -4.2063593  57.3281129  75.7857590  -4.7500453  57.5763851
   8.9831270  30.6696106  28.8079182   9.1286359  29.8874467  28.4498870
   9.7835267  30.9608593  28.9967935   9.1228572  30.5970923  28.7829304
  44.2332834   1.4359495  54.4623657  44.2016950   2.1541453  53.9680615
  44.5010304   1.7323695  55.2379856  44.2681689   1.5858292  54.5039218
  27.1247863  43.2146077  17.5345975  26.3405815  43.2191381  17.1523125
  27.5714276  42.6192102  17.0794569  27.0749212  43.1273244  17.4108925
   4.9626048   8.3708508 -35.1213065   5.6609420   7.9423026 -35.4209915
   4.3314334   7.7686835 -35.1338212   4.9725266   8.2185929 -35.1674248
  41.2297891  10.7267820  15.4211062  40.4909029  10.9708739  15.8155753
  41.8538329  11.0828603  15.9159972  41.2128245  10.8154395  15.5524830
  39.6219551  18.3476742  70.9572399  38.8349029  18.5417569  71.2797616
  40.0554035  19.1032814  71.0054042  39.5697206  18.4879630  71.0119979
   8.9654750  -5.6301287  16.5913588   8.9962241  -5.5273885  15.7255422
   9.7983972  -5.7680345  16.8112730   9.0930571  -5.6353234  16.4959457
  24.2936550   1.3792381  33.5676688  24.6585270   0.7914091  33.0361943
  24.6558526   1.2078332  34.3426351  24.4010582   1.2670836  33.6036375
  12.5999174  51.1750389 -25.5382595  12.0805909  51.7073910 -25.0821447
  12.1176820  50.4550636 -25.6393735  12.4519661  51.1473231 -25.4858186
  12.1008187   5.5729005  15.5400636  12.7407058   5.0236048  15.7635770
  11.6278956   5.1148566  14.9676309  12.1254827   5.4240957  15.4885210
  49.8903031 -27.9325037  10.4331082  50.7493004 -28.0547656  10.5242960
  49.7550823 -27.1497364  10.7938437  49.9972198 -27.8349335  10.4998666
  64.2403693 -15.4988253 -16.1215117  63.4955856 -15.0527583 -16.2078885
  64.3524872 -15.8646511 -16.9055657  64.1469115 -15.4869720 -16.2500923
  73.9261855  21.8813804  40.9677083  74.6451483  22.3433548  40.7921758
  74.2366265  21.1386686  41.3040789  74.0782497  21.8399097  40.9914674
  57.7929321  25.3009664  52.0850360  58.0219446  25.5970989  51.2970015
  58.5165991  25.4042392  52.5612505  57.9336625  25.3599668  52.0389737
  48.5866526  23.6324869 -27.0801296  48.7386070  23.7859865 -27.9254031
  49.2506493  24.0295757 -26.6769318  48.7071854  23.7138202 -27.1454333
   5.0911721  29.1818837  38.7612086   4.9859147  29.9199820  39.2142774
   4.2774403  28.8822473  38.6653019   4.9554184  29.2466536  38.8139688
  44.9696948  51.3194903  26.6327355  45.7459508  51.0638050  26.9380081
  44.5203404  51.5164913  27.3541305  45.0179849  51.3108214  26.7843955
  23.0046752 -24.4028795  -3.8995347  22.5941425 -24.1948471  -3.1583701
  22.4114660 -24.2347504  -4.5167664  22.8564018 -24.3473127  -3.8812273
 -16.1490271  44.1451457  25.9190930 -16.6851855  44.0885355  26.6050004
 -16.2287693  43.3675323  25.5316681 -16.2400083  44.0219137  25.9631851
  82.8040124  21.7586413   1.7285230  82.2873681  21.4440494   1.0998339
  82.3696816  21.5742887   2.4623557  82.6635338  21.6849369   1.7440549
  31.5872593  35.6448063  12.2860925  31.2273406  35.0421665  12.8041883
  32.1538252  35.1889796  11.8040504  31.6177854  35.4884490  12.2914184
  62.7612763 -12.3104685   3.4733035  62.4044599 -11.7115053   3.9977696
  62.0976320 -12.8476829   3.2940931  62.6105332 -12.3013469   3.5243049
  70.4013807 -27.3611009  12.1145838  70.6370561 -28.1701171  11.8885540
  70.4561665 -27.3671923  12.9852737  70.4442878 -27.4815091  12.2098134
  40.6357606  16.5064401  31.8591244  40.3250642  16.8258801  31.1090809
  39.9644984  16.0525946  32.1824985  40.4907051  16.4865857  31.7960966
  38.7942577 -13.3044689  42.0574071  39.1985642 -12.6337758  41.6728988
  38.9184896 -13.9650495  41.5012245  38.8723338 -13.3029750  41.9184477
  49.6058044  33.4077334   8.3872260  50.3202642  33.9079314   8.4093339
  48.9759534  33.9603413   8.1442203  49.6183029  33.5632545   8.3545948
  79.4618256  24.4128771  26.7509742  79.2977701  24.5173385  25.9004960
  78.6924668  24.5737837  27.1295711  79.3239411  24.4520774  26.6812676
  33.9668617   2.7877368 -25.0707382  34.0022207   1.9626876 -25.3521330
  34.1937711   3.2537269 -25.7725251  34.0056041   2.7346964 -25.2159744
  48.2676287  42.2446251  65.9602246  48.3975388  42.0028370  66.7883559
  48.9218629  42.8001549  65.8036874  48.3834630  42.2909712  66.0594329
  35.9848770  15.1810056   8.7573958  36.0912057  15.6752998   8.0464057
  35.2104390  14.8004450   8.6287138  35.8861835  15.1978064   8.6333590
  41.2145088  49.9538606  30.5504655  40.9946696  50.7981180  30.5567768
  40.5368459  49.5683525  30.1589351  41.0819293  50.0216273  30.4935607
  61.4422198  15.2434505   3.7611440  61.6574311  15.4381432   2.9383935
  60.6538977  14.8773695   3.6858273  61.3575595  15.2181329   3.6284810
  41.2944123  33.5400854  61.8511380  41.9391237  33.0992341  62.2399014
  40.8542391  33.8903710  62.5179866  41.3246268  33.5267070  62.0070736
  90.7881866  10.5424686  -3.1371991  90.6980701  11.3943501  -3.3024757
  90.9777203  10.5175905  -2.2859661  90.8028726  10.6646340  -3.0358692
  35.7520777  51.4601632  59.0066266  35.6562426  50.9365975  59.6978821
  36.4452806  51.1291075  58.5930913  35.8403212  51.3339180  59.0476516
  27.1396124  15.3020128  -8.8993545  27.2636082  14.6739966  -8.3065980
  26.7388999  14.8889627  -9.5550668  27.0987356  15.1482258  -8.9086544
  48.3441509  36.8684700  23.7509370  48.4308566  37.7266007  23.8822131
  48.2949698  36.5413897  24.5582407  48.3496940  36.9469171  23.8895846
  29.6213757  20.0213368  31.1520390  30.1632016  20.3041666  30.5294866
  28.8861243  19.8418713  30.7180608  29.5928027  20.0366058  30.9959677
 -41.3683672  29.6003575  64.0933931 -41.7276239  29.0548267  63.5150590
 -40.5141856  29.5445418  63.9248762 -41.2952566  29.5115262  63.9830678
  46.3261970  14.1338776  52.8043185  46.2674231  14.9258891  52.4432050
  47.0399889  13.7930621  52.4362350  46.4229567  14.2005285  52.6966011
   9.6450399   3.9225538   2.4505136   9.8587061   4.6478495   2.8857519
  10.2060459   3.9114268   1.7824658   9.7594749   4.0280512   2.4161229
  69.3944584  59.6444190   7.2809050  69.4011088  58.8944645   6.8351881
  69.7170140  60.2232111   6.7133690  69.4430889  59.6191348   7.1312267
  45.9679963   5.8850489   9.1740252  46.3926684   6.5577343   8.8158527
  45.4836031   5.5754043   8.5178065  45.9591743   5.9386775   9.0241787
  45.9914011  35.2493120  51.1321258  46.3400761  35.1855490  51.9293080
  45.3996610  35.8847121  51.2172729  45.9554954  35.3337546  51.2624640
   9.5230073  57.2675834  44.8000857   9.7340595  58.1079433  44.9020256
   9.7350129  56.9084255  45.5663747   9.5855016  57.3386668  44.9283410
  29.7133089  18.2086297  -2.5187611  28.9462257  17.7949213  -2.5583626
  30.0809129  18.0334699  -3.2903348  29.6542976  18.1216418  -2.6385884
  68.7891986  54.0120601  32.6432875  68.5212236  54.5963464  32.0534245
  68.1752057  54.0487849  33.2619987  68.6589138  54.1037962  32.6475490
  29.8704966  22.0055142  21.5283846  30.3341651  22.2066756  20.8172692
  29.9034242  21.1341094  21.5550142  29.9438541  21.9065054  21.4272719
  -9.2616047  26.7241402  18.1043129  -9.4620584  25.8750672  18.1100519
  -8.8141076  26.8342734  18.8450940  -9.2251113  26.6149835  18.2145893
  70.8999905  35.0251001   2.8640861  70.1273615  34.9081546   2.4761329
  71.4552191  35.1041338   2.1957940  70.8678759  35.0194997   2.7080569
  38.0242854  36.5244867  45.3355148  37.8293591  35.8015046  44.8878095
  38.0924932  36.2438403  46.1587552  38.0055664  36.3762301  45.3909891
   6.8650856  44.4121343  14.4095621   6.2714774  44.8587158  13.9520321
   7.1822998  45.0038396  14.9666972   6.8242565  44.5655106  14.4242758
   5.5198293  39.9589168  24.5793922   5.1333400  40.7373989  24.6550966
   4.8522355  39.4084344  24.4679142   5.3641195  39.9925970  24.5741077
  25.8546971  53.6325783  33.8154793  26.1622424  53.1849849  33.1326795
  25.2672012  54.1708268  33.4601250  25.8133426  53.6459699  33.6621226
  12.7711298  36.9277318 -19.7633328  12.3215517  37.5570238 -19.3595871
  12.9403707  36.3557704 -19.1266561  12.7297182  36.9362007 -19.6096410
  12.5598541  16.6238465  35.0250114  12.7655491  17.4425817  35.2452425
  12.1420954  16.7147825  34.2645196  12.5285279  16.7582237  34.9452038
  28.7620983  25.0826864  26.0318533  28.2694869  24.8470668  26.7122627
  29.2384174  25.7441979  26.3427587  28.7596916  25.1455994  26.1782909
  62.4146439  -3.5674220  39.3974839  62.0861178  -2.8796585  38.9729943
  62.3810288  -4.2083940  38.8065826  62.3611482  -3.5605099  39.2474898
  48.6126863 -38.8761186  12.0237697  48.5478412 -38.5359668  12.8245390
  49.1397599 -38.3198998  11.6066922  48.6809669 -38.7437062  12.0804489
  58.1325635  32.4601187  41.5529661  58.4264854  32.4634111  40.7315414
  58.2213250  31.6278923  41.7992591  58.1890937  32.3376680  41.4680073
  49.1778992  52.8214313  -3.6729994  49.7423224  52.4701402  -4.2379424
  48.5009016  53.0489290  -4.1740569  49.1612697  52.8031445  -3.8304697
  38.6660281  25.0060512  46.6446351  39.2404711  24.5315610  47.0985226
  38.0699502  25.2315190  47.2404496  38.6628322  24.9692655  46.7996977
  15.5336528  53.0144452  -8.2473977  15.8187284  53.2100541  -9.0484024
  14.6814663  53.1979924  -8.2824435  15.4498788  53.0704544  -8.3708996
  32.9541362  77.4491019  -1.4514351  33.0087531  77.8153629  -0.6614924
  33.5794600  77.8514357  -1.9077652  33.0545775  77.5626392  -1.4021537
  11.9879820  41.4553019  20.0662691  11.8044595  42.0182849  19.4255591
  11.2033259  41.2395407  20.3807552  11.8449620  41.5065937  20.0180791
  26.3167100   3.2371799  32.7498113  26.5061466   3.4677915  33.5696111
  25.7663934   2.5672398  32.8471325  26.2634006   3.1722820  32.8852890
  15.4418114  18.4939878 -13.0666681  16.1456644  18.8815873 -13.4065168
  15.2206496  17.9044216 -13.6705213  15.5131148  18.4641532 -13.2060723
  19.8661577   5.2587884   6.4796496  20.2330495   5.5014999   5.7262432
  19.3168229   5.9120847   6.6601343  19.8392071   5.3911472   6.3950172
  17.3093647  20.5115000  48.6325929  17.6784263  20.0704589  49.2886537
  16.9682889  19.8848869  48.1304346  17.3134987  20.3537855  48.6553275
  30.5817313  45.6509585  -0.1878659  30.7271786  46.1702221   0.4979547
  30.0943588  46.1432597  -0.7181932  30.5312219  45.8003875  -0.1648964
  37.0539264  46.5951815  -1.6948563  37.5370461  47.2670102  -1.9712277
  37.2339775  45.9632360  -2.2687605  37.1518904  46.6010731  -1.8204595
  73.4405166  30.4794784  37.0885581  72.8385105  29.8680853  37.2464402
  74.1761853  30.1279881  37.3990185  73.4602613  30.3372406  37.1577420
  -9.2720513  62.0196522  -0.7597256  -8.4174937  62.1651709  -0.6612624
  -9.5098669  62.5980212  -1.3680614  -9.1809458  62.1265853  -0.8350443
  41.1015145   8.0023988  22.4629188  40.9629176   7.3221650  22.9913242
  40.6268373   8.6406351  22.8213536  41.0109213   7.9961949  22.5939234
  60.5169200  48.4124536  22.2960987  60.3706154  49.2721003  22.2688553
  60.4811955  48.1716421  21.4583200  60.4900306  48.5038683  22.1683171
  53.5423274   4.5509785  14.7550417  53.9973584   5.2300440  14.4501542
  54.1501993   4.0461784  15.1249175  53.6993401   4.5767211  14.7646418
  26.6353790  35.1580505  36.5807382  26.8836742  35.8538338  37.0448230
  26.8230278  34.4852259  37.1034566  26.6997769  35.1614420  36.7265094
  40.9185845  11.8887087 -19.4079229  40.3673879  11.2271113 -19.2678841
  40.5335701  12.5638639 -19.0116038  40.7802868  11.8907114 -19.3286918
  45.4643980  10.9902195  21.9059842  44.9552413  11.4127541  22.4746348
  45.5844168  11.5716460  21.2667047  45.4069143  11.1385253  21.8955508
  24.2207836  24.9211143  17.1528649  23.4317531  24.8622103  16.7853043
  24.7612225  24.6532327  16.5225437  24.1840615  24.8728413  17.0054572
  30.3926100  36.8904411  -1.1442091  29.8765964  37.3122753  -1.7071704
  31.0876882  37.4127440  -1.0720591  30.4190615  37.0299096  -1.2167120
  51.6475292   9.4240111  58.4077936  51.1258008  10.1159796  58.5083851
  51.1336806   8.7485645  58.6099592  51.4945531   9.4264517  58.4525170
  43.9326375  -0.8595497  21.1593747  43.3999822  -0.7136903  21.8347582
  44.4368005  -0.1478506  21.1383124  43.9284286  -0.7328707  21.2560314
   6.6800454  35.1261135  18.8797959   5.8992978  34.9131989  19.2057408
   7.1405084  35.3563952  19.5841280   6.6327327  35.1286790  19.0319890
  16.5189472  18.1794866  59.4486159  16.5992051  18.8399592  58.8842807
  15.8685705  17.7028848  59.1154486  16.4347289  18.2066481  59.3160363
  27.9019755  44.8007479 -38.3599627  28.2078680  44.3708890 -39.0547941
  28.5342478  45.3738855 -38.1786218  28.0405617  44.8219131 -38.4358159
  38.9735354  17.7469111  -0.9409499  39.8174422  17.6756203  -1.1504220
  38.9863618  18.1738582  -0.1802324  39.1000926  17.7994489  -0.8595196
  30.1470160  31.8868270  32.8346849  30.7208157  31.6507366  32.2213704
  30.6438399  32.0234546  33.5387008  30.3051692  31.8721343  32.8480834
  68.2123351  42.6765517  50.8757960  67.8681763  41.9236171  50.6005076
  68.8863138  42.8033390  50.3365214  68.2610563  42.5840569  50.7554683
  13.5772093  53.2136714   6.7553711  13.7260517  52.7431067   7.4747835
  13.4139906  54.0134019   7.0634788  13.5750856  53.2622960   6.9071570
  86.5031168   4.4948771  33.0612231  86.8848946   4.8139887  33.7778492
  85.6508790   4.5712103  33.2315273  86.4336201   4.5532924  33.1922410
  25.3984412  34.8272465  69.0794923  25.7331281  35.6329285  69.0804260
  26.0996026  34.3139432  69.0018273  25.5514573  34.8704369  69.0681575
  39.0095192  65.8008975  48.0969560  39.5185388  66.5084259  48.0589790
  39.5693363  65.1544874  48.2698673  39.1674084  65.8099260  48.1168886
  43.5774295 -39.3264577  25.8179839  43.9786304 -38.6253304  26.1475260
  42.7363021 -39.1874809  26.0032664  43.5124433 -39.2023570  25.8940341
  51.2096213  38.4291873  -0.5709665  51.8855930  38.7075527  -1.0471119
  51.5863850  38.0047560   0.0916396  51.3651320  38.4076104  -0.5434224
  27.4990049  -5.9137431  19.3071649  27.4653495  -5.3886303  20.0030552
  26.7008778  -5.8471993  18.9611813  27.3761335  -5.8263433  19.3588533
  53.9477777  -6.2914251   6.2051879  53.2195306  -5.8128026   6.1637625
  54.5498245  -5.7251235   6.4844400  53.9291353  -6.1370683   6.2403198
  55.1819482   7.9971212  22.2385333  56.0299198   7.9466194  22.4373630
  54.7834048   7.8455417  22.9996682  55.2483380   7.9672696  22.3803399
  66.0754363  10.6361528  64.8211180  65.6066896  11.3718817  64.8102085
  66.1465025  10.4256755  63.9774424  66.0166907  10.7137433  64.6948782
  43.1090336  30.2497897  50.8436223  42.9207596  30.0576118  50.0137066
  42.5166741  29.7985037  51.2981448  42.9937180  30.1547369  50.7881690
 -13.1546747 -11.2303286 -14.6500201 -13.1106814 -11.9682435 -15.1133620
 -13.9166873 -10.8812278 -14.8921046 -13.2607410 -11.2877645 -14.7542261
  50.6308024  22.5762055  33.3639632  50.7420750  22.0223165  32.6991588
  50.1170726  23.1971507  33.0298251  50.5713512  22.5861111  33.2163988
  20.2460060  13.1236768  49.2125955  20.8890574  12.8152600  48.7100983
  19.6816563  12.4596535  49.2540928  20.2576318  12.9800274  49.1444963
  46.7910040 -22.3288445  24.1233877  47.4273043 -22.9067750  23.9741973
  46.5504478 -22.4961677  24.9451390  46.8494636 -22.4389338  24.2227388
  77.3575466  25.0409045  22.0403509  77.7707289  24.5537744  21.4461082
  77.5827447  25.8568920  21.8291881  77.4518486  25.0894835  21.9213759
  78.9171747  10.3524456  10.2342080  79.6886163  10.7466424  10.3372921
  78.3896033  10.7896904  10.7742310  78.9531993  10.4752667  10.3292082
  34.7777171  32.7446447  15.2786019  34.5542317  32.8927168  14.4483800
  34.0394526  32.8926357  15.7192876  34.6356468  32.7883793  15.2210594
  72.4252800  34.7408927  20.2420538  71.7432283  35.1324497  19.8643923
  73.0944088  34.9475814  19.7217788  72.4233710  34.8292660  20.1094100
  68.0918250  14.2161794  -2.2188477  67.9889166  14.4333053  -3.0575406
  67.2750885  14.1824600  -1.9139805  67.9559745  14.2432723  -2.2977048
  56.6568065  12.1857406  45.2044344  56.4714807  11.6771037  44.5202690
  57.4854448  11.9857783  45.3902117  56.7518370  12.0810659  45.1308122
  45.7378666   3.8865030  26.8670448  45.3717720   3.9148853  26.0756482
  45.9088913   3.0389838  26.9836696  45.7090508   3.7654996  26.7673671
  34.1404471  -3.1843074  12.7140433  34.9117275  -3.3740154  12.3531043
  33.6678918  -3.9051242  12.5789355  34.1845749  -3.3188107  12.6407670
  17.9069333  32.7689185  -5.3624271  17.0705317  32.6231030  -5.1616542
  17.8790853  32.9972168  -6.2039994  17.7792658  32.7811029  -5.4570864
  44.8956941  33.2914930  36.3887342  44.3585253  33.2924294  37.0761848
  45.5995138  33.7183736  36.6777848  44.9203119  33.3546904  36.5329836
   8.8904170  25.7020554  -0.6616662   8.0600262  25.7710547  -0.9201809
   9.2533530  26.4462630  -0.9365698   8.8213643  25.8221828  -0.7404631
  41.2417083   4.6512911  -6.9929518  41.2460546   5.5124910  -6.8534697
  40.6339778   4.5465008  -7.6100597  41.1525760   4.7630284  -7.0635070
  -0.6838255   6.3482901 -20.3824840  -1.3002063   5.7367842 -20.4677758
  -0.5129952   6.5834884 -21.2050643  -0.7496425   6.2927017 -20.5165954
   1.8702138  19.0716645  12.7439600   2.1237063  18.6215828  13.4470300
   1.0580722  18.7872552  12.6001651   1.7876898  18.9631651  12.8265765
  33.8648537  -0.3831792   6.1021524  33.0190897  -0.1699089   6.1205533
  34.0524994  -0.5502521   6.9376255  33.7676361  -0.3763549   6.2282872
  22.0063178  37.1240028   5.1643433  21.5558166  36.3785328   5.2139686
  21.4265614  37.7303677   5.4038085  21.8541275  37.1034541   5.2070479
  -7.3921144  30.8852040  -4.3174292  -8.1515377  30.5102892  -4.5268446
  -6.8987689  30.2158076  -4.0535006  -7.4314196  30.7309377  -4.3093764
  33.8410861  27.0311046  19.1890867  34.0157959  26.4848006  18.5316919
  34.5545158  26.9851221  19.6891300  33.9722826  26.9436117  19.1658426
  11.0797036  12.8694306  14.0689881  11.0105042  13.2731535  13.2986902
  10.3722887  12.3596459  14.0976824  10.9649816  12.8537631  13.9594380
  13.0912500  -5.6461912   0.6228415  13.7633435  -6.2017023   0.6517762
  12.4021416  -6.1481081   0.8081751  13.0887365  -5.8023951   0.6544933
  16.1249482  60.5733360  54.8697654  16.1859095  61.2045277  55.4689484
  15.7263017  60.9645326  54.1995523  16.0750652  60.7243638  54.8592728
  26.2491033  17.2260951  -0.0395771  25.9260225  16.8657998  -0.7654873
  25.5613164  17.6320005   0.3116057  26.0997773  17.2328326  -0.0949321
   2.0991183  13.9239747 -37.3266400   1.8366451  13.9389572 -36.4947609
   2.2289003  13.0760101 -37.4855494   2.0795171  13.8009261 -37.2272285
  -8.4483112 -31.1084671  -1.8413522  -8.3210884 -31.1533582  -2.7032910
  -7.6394772 -31.0747907  -1.5160940  -8.3100363 -31.1101237  -1.9206310
  42.4953766  20.0958548 -17.5431103  43.0966966  19.9934324 -18.1668599
  41.8769174  20.5736499 -17.9308726  42.4928448  20.1513051 -17.6925315
  52.0517620  44.1732797  13.4904608  52.0459889  45.0298536  13.6559517
  51.4030744  43.8643664  13.9853511  51.9550847  44.2541804  13.5880127
 -44.2010638  56.0696309  -5.1222437 -43.8115902  56.8418784  -5.0078597
 -43.6510386  55.5050885  -4.7482069 -44.0622805  56.1003132  -5.0500939
  37.5559121   5.4151797  34.0257659  37.0356070   5.9081945  33.5284144
  38.1484626   5.1097763  33.4629585  37.5665842   5.4428938  33.8691586
  -2.1308014   1.2231120 -15.9701352  -1.9179392   1.9318700 -16.4321864
  -1.3965480   1.0303941 -15.5401685  -1.9908929   1.2993418 -15.9748747
  53.7212048 -49.2359369  44.7260234  53.4364250 -49.1523246  45.5464190
  53.8303949 -50.0965504  44.6334958  53.6952666 -49.3507160  44.8335445
  10.8214696   8.3596665  -5.6343980  10.2403956   8.9278064  -5.9517459
  10.3809353   7.6069793  -5.6113521  10.6705570   8.3324051  -5.6778725
  34.2164729  36.8619577  14.3244709  35.0132474  37.1323261  14.5551025
  34.1836684  37.0269554  13.4684106  34.3293270  36.9262703  14.2320822
  16.0064179  17.4777974  14.9321295  16.8142859  17.5574875  15.2517205
  16.1363100  17.2335717  14.1047109  16.1449444  17.4534921  14.8571129
  27.2911007  45.9994685 -10.6322704  27.5676914  45.8421747 -11.4446101
  27.5598899  45.3002594 -10.1850584  27.3716645  45.8729454 -10.6862073
  -8.5075269  32.7846480  20.4393466  -8.7530036  32.0007337  20.7332156
  -7.8549042  33.0087118  20.9732178  -8.4473831  32.7019466  20.5616209
   3.9123377  19.6610591 -24.2379669   3.3044604  19.8194547 -23.6325451
   4.0930394  20.4518831 -24.5590336   3.8492351  19.8012784 -24.1959618
  64.9499111  41.8085918  21.6675549  65.7636336  41.5487659  21.8449971
  65.0405911  42.6569655  21.4854044  65.0835100  41.8955324  21.6668594
  56.7437552   9.0266727  12.3283733  56.9111750   9.6428321  12.9228964
  57.2041072   8.3406493  12.6087081  56.8364900   9.0163523  12.4576079
  33.4572366  11.7546915  -8.2260575  32.9302044  11.3006941  -8.7526151
  33.1366666  12.5651998  -8.2641457  33.3320283  11.8073555  -8.3094673
   3.3490863   2.0705209  -5.8040668   2.5196638   1.8231202  -5.6945640
   3.2851205   2.9142230  -6.0167044   3.2171144   2.1586069  -5.8193019
  -7.2216763  15.5084157  52.3378104  -7.2221901  15.9152734  51.5660552
  -7.8768082  15.8887037  52.7706185  -7.3185287  15.6246934  52.2877409
  12.2948106 -12.1549500   5.2180268  12.6600391 -11.4267318   5.5301903
  12.7839915 -12.3475970   4.5218022  12.4210245 -12.0758351   5.1612931
  46.8866208  16.7644118  -5.8217255  47.1720628  17.3394458  -6.4124863
  46.9139230  16.0029964  -6.2467440  46.9328195  16.7368794  -5.9717771
  19.6484895  18.3986651  42.8056389  20.1047399  18.3565941  43.5480707
  20.1458608  18.8933831  42.2869719  19.7893591  18.4655304  42.8386935
  15.3003056   0.1020830 -34.8668807  15.5505691  -0.7256090 -34.9827845
  14.4310971   0.0645695 -34.9317559  15.2088747  -0.0257257 -34.8935855
  30.8790055  31.9762368  -1.8587951  31.2333487  31.6193153  -2.5716678
  30.1784248  32.3957008  -2.1660022  30.8278591  31.9854756  -2.0094819
   5.2274157  17.4933591  47.0459396   5.1939433  17.8972897  46.2733729
   6.0822339  17.3902973  47.1866648   5.3487454  17.5378037  46.9526036
  43.2685652  36.7006700 -13.0349062  43.9106922  37.2858948 -13.1144322
  42.5530011  37.1506722 -13.2507894  43.2577170  36.8535943 -13.0785442
   9.8427071 -15.5043528  -2.1638444   9.4663019 -15.9358806  -2.8220559
   9.2649530 -15.5766723  -1.5141447   9.7017581 -15.5787814  -2.1651018
  54.7483282  39.0685356  16.6359800  55.0104771  39.1188937  17.4665710
  53.9307497  38.7701664  16.6966481  54.6662798  39.0318993  16.7676373
  49.6374471  35.6686232   4.4790123  49.7035567  36.3250622   3.9081736
  48.7841628  35.4869299   4.4847607  49.5211652  35.7387529   4.3955368
  58.4841529  -0.2022050  24.1255984  58.8232071   0.6012726  24.1009926
  59.0099344  -0.6299898  24.6748648  58.6119070  -0.1467074  24.2031016
  48.8112818   8.7393062   5.2152221  49.0991067   8.1546045   5.7952396
  49.2066771   9.4788048   5.4559376  48.9122075   8.7621729   5.3364613
  66.1829337  31.3431809 -25.7854607  66.1068379  31.4811755 -26.6435437
  67.0454827  31.3105294 -25.6586430  66.2991091  31.3587422 -25.8934837
  41.2339268   2.1778480  27.2551102  41.2961256   2.3150849  26.3957867
  40.5186185   2.6225034  27.4826078  41.1374490   2.2638055  27.1617765
  10.1274756  16.7209494  28.9414092  10.3038748  17.5483137  29.1546958
   9.3445770  16.7699995  28.5595671  10.0378831  16.8504139  28.9165101
  31.1311123  24.9302190   5.2518718  31.7183207  24.8619432   4.6102612
  30.3717589  25.0014208   4.8282537  31.1056829  24.9306512   5.0945155
  22.1890710   2.0820857  17.0680891  22.1063459   2.4853983  16.2989110
  21.5135668   2.3828373  17.5311032  22.0770649   2.1860905  17.0228624
   8.0707017 -47.7900729 -21.9237090   8.8094818 -47.8894291 -22.3769990
   7.6321126 -48.5274269 -22.0821021   8.1150461 -47.9136723 -22.0140672
  12.3455670  -1.3079893  -3.3032294  12.4000976  -1.2674602  -2.4334459
  13.1176777  -1.0030918  -3.5715987  12.4676789  -1.2569627  -3.2143882
  36.5110767  23.1551471 -12.1809113  37.1711507  22.6015553 -12.0431509
  36.2929246  23.0111774 -13.0132705  36.5763577  23.0521029 -12.2835178
  35.3526125  14.7494903  24.0513517  34.5093334  14.9716975  24.0259791
  35.7545110  15.4263711  23.6752540  35.2874115  14.8823041  23.9920463
  71.3640158  39.5796871   5.5604216  71.2959566  39.4702823   6.4232877
  71.2654292  40.4400147   5.4543240  71.3393987  39.6906139   5.6722119
  72.9706037  -7.8446212 -34.3252932  73.5188742  -8.0574731 -33.6809074
  72.2502584  -7.5879529 -33.9053365  72.9451847  -7.8381486 -34.1680679
  27.5608026  -5.5556593 -11.6350495  26.7100060  -5.6525555 -11.8020699
  27.5920892  -5.4807094 -10.7664050  27.4397441  -5.5589012 -11.5314051
  38.8369466  32.3074247   8.4212015  39.2619586  33.0526489   8.5797740
  37.9977927  32.5460860   8.4201422  38.7757693  32.4527649   8.4444695
  26.3522680  20.6478797   0.6045117  25.6966495  20.0840977   0.7205026
  27.0278593  20.1367694   0.3959878  26.3552184  20.4890959   0.5908427
  22.9272985  33.9246955  43.8403820  22.1700476  34.1532927  43.4723414
  23.2843241  33.3839615  43.2561911  22.8681770  33.8785864  43.6997178
  14.5166956   9.8021043 -20.1322412  14.7289085  10.0910073 -20.9276281
  15.2713462   9.4996501 -19.8157551  14.6595213   9.8001025 -20.2029847
  -5.2305117  25.9750312  -4.6696471  -4.5988706  25.3978470  -4.8400219
  -5.8891205  25.7147504  -5.1791841  -5.2344953  25.8513204  -4.7700841
   6.7748805  -1.6817718 -35.0737197   7.4207979  -1.7661288 -34.4933627
   7.0102437  -0.9847968 -35.5427288   6.9050638  -1.5912755 -35.0572713
  49.6794802  -7.0821927  10.4835875  49.2155677  -6.4645429  10.0780836
  50.0571925  -6.6548217  11.1437595  49.6667466  -6.9278216  10.5212072
  44.7259020   5.8682353  17.3451668  44.0814080   6.0816527  16.7972435
  44.3450804   5.8937895  18.1296803  44.5744418   5.9035363  17.3801161
  59.2957122  11.7321323  45.6018971  59.5920161  11.8143428  44.7854505
  59.7275405  11.0386067  45.9079790  59.4032723  11.6418285  45.5265057
  20.6794241 -22.7891781  35.6954283  19.9862993 -22.4533834  36.1052569
  21.2990945 -22.1863894  35.8128760  20.6685734 -22.6505300  35.7733179
  34.7880605  36.3981357  -6.0901476  34.0106710  36.2118916  -6.4396019
  34.9401090  37.2162447  -6.3522897  34.6956847  36.4914752  -6.1804930
  25.8872692   3.3645784  47.1829541  25.2378395   3.9154936  46.9935522
  25.5570400   2.5819944  46.9838297  25.7425534   3.3303561  47.1255608
  37.9433366  20.6462343  16.9868848  38.4944255  20.9902972  16.4045951
  37.8215586  19.8321031  16.6979212  38.0067547  20.5767955  16.8581827
  53.2602765 -31.1068779  64.8193992  53.5875747 -30.4313763  65.2640486
  53.2884847 -30.8392100  63.9895210  53.3127921 -30.9675523  64.7624929
  21.2680459  23.1202389  44.1918572  21.0914376  22.5493365  44.8274825
  20.7829978  22.8393903  43.5232827  21.1703056  22.9944177  44.1869899
  13.4425169 -23.6742266  20.2881345  13.6702295 -22.9103481  19.9334851
  14.1771629 -24.1435281  20.2536244  13.5846771 -23.6307115  20.2306476
   3.4462721  -9.4268331  47.9371139   4.1897121  -8.9735824  47.9918898
   3.7042407 -10.2555228  48.0257994   3.5942008  -9.4822932  47.9583061
 -13.5135340 -19.1073135  49.9600339 -13.8567360 -18.5943043  49.3434517
 -12.7510008 -18.7252804  50.1437009 -13.4515901 -18.9750973  49.8960834
  21.0404463  41.0335109  35.8312955  21.9085324  40.9831337  35.9022054
  20.9195672  41.6479030  35.2238004  21.1508242  41.1168276  35.7520308
  45.7252330  54.7509091  25.7192548  46.4038647  54.2192301  25.5854041
  45.0409074  54.2100017  25.7352897  45.7243919  54.5924660  25.7018510
  31.6282601  35.4867463  67.3108485  31.8955544  35.2662281  66.5101832
  32.3439646  35.8209864  67.6812405  31.7734693  35.5035454  67.2472883
 -38.9812445  29.9785975  96.8970103 -39.1508546  30.2891286  96.0995504
 -39.3252770  30.5789562  97.4283771 -39.0571201  30.1131547  96.8577029
  27.4745919  30.4796297   1.8633255  27.5450598  31.2344992   1.4316478
  28.2935468  30.3068939   2.1095263  27.6059780  30.5656228   1.8359268
  27.9287574 -14.0927518  37.0841259  28.5972627 -14.1233560  37.6438612
  27.2359882 -14.2759352  37.5817746  27.9251731 -14.1243326  37.2403233
  59.7312375 -20.5943790  60.1451534  59.1866122 -21.2651145  60.0241714
  59.1968634 -19.9144810  60.2605770  59.5718470 -20.5930255  60.1443323
 -26.0504568  -9.8702073  -0.0514656 -26.5275421 -10.5182318  -0.3885020
 -25.6494517  -9.5277794  -0.7465034 -26.0616955  -9.9153502  -0.2039242
  20.3926652 -10.6387634   4.2101419  20.1449377 -11.4468411   3.9938525
  19.6482441 -10.2541076   4.4530754  20.2461044 -10.7013116   4.2140778
  63.3854452  48.2818395   8.7834995  64.1802223  48.2416247   8.4259361
  63.3901892  49.0435256   9.2088833  63.5035509  48.3884157   8.7935180
  20.0182433 -36.1502512  68.9493278  19.3020858 -35.8748740  68.5340864
  19.7023446 -36.5976986  69.6283995  19.8657873 -36.1756695  68.9883010
  -2.4652440 -16.8070179  10.9753924  -3.1910267 -16.5385405  10.5725290
  -2.6716208 -17.6058084  11.2590858  -2.6029432 -16.8853561  10.9577886
  28.8866932  35.5224775  50.5022900  28.6244371  36.1223781  51.0789013
  29.0299387  35.9845916  49.7762935  28.8691129  35.6793590  50.4802227
  27.3256354  42.0295864  25.8969977  27.1248311  41.3167245  26.3581322
  26.6803293  42.0842588  25.3124205  27.2006475  41.9323583  25.8787627
  43.2296201  30.7937830   4.6383879  42.5900829  30.6898693   4.0541501
  43.6986709  31.4539351   4.3138418  43.2044357  30.8759509   4.5041418
  68.7433091   7.3263668 -12.4236910  67.9063070   7.1349912 -12.2689581
  69.1792731   6.7291612 -11.9606354  68.6840675   7.2098771 -12.3324309
  75.5106254 -22.4534603  26.4099537  75.0002160 -22.2412355  25.7349853
  75.2305659 -21.9319601  27.0508467  75.3938569 -22.3450740  26.4049201
  23.9477280  -4.9942559  30.9284757  23.8908928  -5.3556268  30.1364401
  23.1149602  -4.8940706  31.1684760  23.8163153  -5.0328384  30.8469287
  64.0572774   9.9346280  34.7481040  64.3639978  10.7303735  34.5641173
  64.4672223   9.4193775  34.1757390  64.1631436   9.9760629  34.6363753
  28.7380802 -39.1207657  38.1799531  28.1461551 -39.5707533  37.7235811
  28.2705905 -38.7586950  38.8214339  28.5815828 -39.1337529  38.2072975
  41.8370694 -16.2155849 -10.5601689  41.8015821 -16.3736334  -9.7029053
  42.5266539 -16.6792818 -10.8258717  41.9336930 -16.3074295 -10.4727832
  36.8449187   1.0064448 -25.8740861  37.2313452   1.3859583 -25.1901391
  37.5072873   0.8372640 -26.4161057  36.9998473   1.0375152 -25.8531205
  46.9538178  -4.2366351  26.5412969  46.2660542  -4.3506051  26.0167670
  47.0681251  -5.0221545  26.9032811  46.8691065  -4.3695082  26.5172856
  65.7728599   0.9738866  -2.7704142  65.4483462   0.8924531  -1.9646853
  66.4320620   1.5365074  -2.6701646  65.8223003   1.0449679  -2.6365825
  56.0506830  63.8929661  11.7451510  56.4782033  63.2258711  11.3799796
  56.6304602  64.5445323  11.7237152  56.1994816  63.8906722  11.6880412
 -14.5846544   4.7183792  20.1513075 -13.8974587   4.8522899  20.6718548
 -14.2240734   4.4941788  19.3891690 -14.4298762   4.7050416  20.1156195
  18.5433256  11.6116959  38.6055458  18.2203983  11.0966774  39.2313361
  17.8407226  11.8300527  38.1367080  18.3918336  11.5678728  38.6287309
  29.0905290   3.7103027  48.8855000  29.0315476   3.9794969  48.0577348
  28.7595196   2.9034193  48.8628816  29.0329193   3.6308749  48.7598808
   9.1305042  17.1635740  24.9030960   9.2225869  16.3229238  24.6886957
   9.9333721  17.4899418  24.8029621   9.2627069  17.0876039  24.8566328
  53.5041186 -21.1935718   4.5887326  53.2758586 -20.7327511   5.2934888
  54.2876509 -20.8725139   4.3786411  53.5861437 -21.0780722   4.6618048
  81.0490811  23.7776790 -36.6076398  80.4362850  23.5228412 -37.1739242
  80.7394004  23.5114573 -35.8366901  80.9128123  23.7007078 -36.5774065
  48.6240142   1.7582029  16.9854127  48.2110811   2.2781587  16.4194871
  49.4654259   1.9591326  16.8723060  48.6873093   1.8646925  16.8851056
  -5.7605214  13.1448375  11.8753345  -6.3184633  13.8155274  11.8792448
  -6.2660592  12.4564142  12.0532236  -5.9176193  13.1422179  11.9021900
  41.0681446 -25.3169693   3.2608803  41.6129752 -25.5849204   2.6343811
  41.3897094 -25.6849888   3.9835817  41.1961291 -25.4109153   3.2750914
  30.1514796  10.8257686 -16.7085715  29.9871085  11.6812604 -16.7560636
  29.3574551  10.4643403 -16.7027187  30.0099048  10.8987519 -16.7147225
   3.2840188  -5.7127032 -24.6400511   4.0170257  -6.1216963 -24.4022170
   3.3181445  -5.7208935 -25.5117781   3.3973401  -5.7743298 -24.7336901
  44.3952098  -1.7283241   2.4212625  43.6876987  -1.2843997   2.6732519
  44.3200118  -2.4895060   2.8408896  44.2795875  -1.7751896   2.5204741
  -1.7497674  -6.0927771   5.6349534  -1.8142610  -6.7398882   5.0533802
  -1.0326471  -6.2954152   6.0886227  -1.6533610  -6.2183026   5.6160594
  20.9004326  29.7078957  31.7712746  21.4856127  29.0609428  31.7837478
  20.5183283  29.6238647  30.9914832  20.9304311  29.5999143  31.6579259
  41.3643499  -5.1360418 -16.1759980  41.1684793  -4.7875311 -15.4005533
  42.0021503  -5.7019507 -15.9913435  41.4296320  -5.1681560 -16.0341716
  48.6955269 -17.1792015  21.7424489  47.9998816 -17.0428625  22.2510045
  48.6708835 -18.0372994  21.5868844  48.5891254 -17.2858202  21.7945929
   3.9194890  -2.4380573  18.2354165   3.7614441  -2.5130921  17.3807053
   3.2238400  -2.8118196  18.6062449   3.7933808  -2.5043539  18.1639370
  15.1863953 -11.6695560  11.1589784  15.6527939 -12.0852626  10.5500450
  14.9132012 -10.9482784  10.7512246  15.2149356 -11.6244169  11.0087927
  34.4555017  55.3435633 -25.3766825  34.3997569  54.4879238 -25.2157068
  33.9758394  55.4482908 -26.0978592  34.3764110  55.2326381 -25.4594357
  18.9656501   7.1179683  20.1245029  19.1548691   6.7856618  19.3403421
  18.5244964   7.8470010  19.9373286  18.9284342   7.1765729  19.9810167
  49.8244452 -40.7424022  70.9538102  49.8579012 -39.8977414  70.7380129
  50.4757892 -41.0973956  70.4946041  49.9256043 -40.6700682  70.8540983
  31.7186933   2.5131942   8.2225848  31.8111586   2.0639377   8.9647157
  30.9722737   2.9496818   8.3386702  31.6220908   2.5113079   8.3493610
  50.7369070  12.5625698  27.2338550  50.8623951  12.0783971  27.9486760
  50.6326127  13.3696023  27.5484353  50.7400378  12.6102628  27.3859188
  27.5125393  -1.6262058  14.7830273  28.2161352  -2.0879399  14.5530406
  27.1770751  -1.3695707  14.0196520  27.5669199  -1.6565031  14.6362872
  41.1180985  31.8927127  -1.1512216  41.2947350  32.2033173  -0.3553172
  40.7650135  32.5753468  -1.5641152  41.0920334  32.0394345  -1.0946430
  32.1689611 -46.0357528  12.2395892  32.4928506 -46.7364408  11.8330533
  32.5892910 -45.3690168  11.8655231  32.2788977 -46.0407682  12.1242782
  -3.0933085 -55.1354239  34.9983563  -3.0380954 -55.9597716  34.7181031
  -3.2886472 -54.6860168  34.2765422  -3.1140079 -55.1908103  34.8503303
  17.4831553  36.1466965   4.0702127  16.9468713  35.5553721   4.4221709
  17.2427595  36.8939635   4.4509245  17.3684237  36.1697324   4.1784432
  86.8368012  17.5894558  -8.9375688  86.8159587  17.9714224  -9.7216648
  86.5207048  18.2018543  -8.4026008  86.7870283  17.7363440  -8.9743701
  32.7404936   2.0080935  -1.0489274  32.6565831   2.8688392  -1.1638861
  32.7064789   1.9125926  -0.1824044  32.7230736   2.1211359  -0.9379058
  48.1553979  -1.8667187  22.3316876  47.2928030  -1.9904860  22.2898402
  48.2312977  -1.0528766  22.6367120  48.0391869  -1.7647804  22.3705643
  43.8190779  12.4513655  23.4578619  43.2574272  13.1050109  23.3220841
  43.9543567  12.4727920  24.3194767  43.7560940  12.5510875  23.5650829
  40.1899446   6.2186778 -16.4224932  39.6540922   6.4148971 -15.7625692
  39.9613088   5.4045923 -16.6372725  40.0770139   6.1274062 -16.3567362
  24.9103201 -45.0018039  17.0629958  24.7064101 -45.8085582  16.8008743
  25.3424918 -45.1317963  17.8096344  24.9440390 -45.1401807  17.1345689
  32.1156337 -43.4433318  24.9715434  32.8813484 -43.3298830  24.5691133
  31.9089157 -42.6423464  25.2487248  32.1982090 -43.3082510  24.9530416
  48.1110250   8.7106759  22.7600884  48.9649145   8.8612191  22.6633979
  48.0353842   8.4910573  23.6010318  48.2259884   8.7004721  22.8700299
  47.5391189 -11.2618379   8.6435556  47.4343845 -10.3982122   8.5778224
  47.9197336 -11.3636553   9.4219547  47.5798721 -11.1493031   8.7488311
  36.8337119 -30.6500366  40.9842265  37.0061025 -31.3344027  41.4971243
  36.3124185 -30.1518080  41.4753079  36.7821717 -30.6775330  41.1325349
  35.3161922 -22.7923896 -26.5004677  35.5223991 -23.5364604 -26.9066412
  36.0332301 -22.6042647 -26.0404621  35.4525744 -22.8745143 -26.4925156
 -11.4870406 -16.5045376  27.5450200 -10.9704083 -15.8164460  27.4009344
 -11.4733905 -16.5931521  28.4128337 -11.4087070 -16.4159825  27.6519296
  15.3317436  -7.5300996  -4.4363767  16.1964558  -7.6326262  -4.4902332
  15.2403445  -6.7239422  -4.1156024  15.4459779  -7.4261588  -4.3969474
   6.5394390  12.4934350   0.5524766   6.0832255  13.1934138   0.8035512
   6.1125064  11.8275164   0.9204718   6.4089801  12.4984664   0.6439260
 -10.8484754  15.4624813  52.6657888 -11.6129626  15.1696738  52.9673889
 -10.8327518  15.1818909  51.8398582 -10.9590832  15.3777786  52.5883344
  31.9411987  45.2348362  45.5447203  32.3334997  45.1183789  46.3152248
  32.6040943  45.3839608  44.9974811  32.0970730  45.2396618  45.5777012
  96.3927789 -55.0368862   6.3117198  96.5131165 -55.9008949   6.3238621
  95.5357578 -54.9510723   6.1728300  96.2839556 -55.1518416   6.2929966
  62.7206231 -56.3879213  39.2031331  62.9315955 -57.1143911  38.7685392
  62.5868167 -55.8020740  38.5706630  62.7320221 -56.4086941  39.0455057
 -11.1090090   0.6917203 -14.0803314 -10.8173308   0.3469097 -14.8267690
 -10.7073692   0.2202894 -13.4658578 -11.0065916   0.5711446 -14.0998252
  20.9129450  21.1940470  45.9895553  20.1031902  21.5059461  45.8992466
  20.8753473  20.4115058  45.6056866  20.7877736  21.1245235  45.9195095
  61.6358627 -10.7738918   5.5303504  60.8292467 -10.6564618   5.2193513
  61.5034568 -11.0136292   6.3586826  61.4971498 -10.7919591   5.6067711
  33.1667644 -14.1609618   1.8319186  33.6098534 -14.7100203   2.3450917
  33.6015677 -14.1905215   1.0761330  33.2964472 -14.2464356   1.7960798
  98.4986596  25.9516710  42.4091898  98.9836434  25.2658351  42.1734796
  98.5032917  25.9162973  43.2808931  98.5709860  25.8451335  42.5031391
  68.1612067  53.1241317 -16.0065051  68.0848331  53.9024101 -15.6197373
  67.5166864  52.6548692 -15.6522089  68.0547158  53.1697797 -15.8970347
  34.4343985  19.1433095  -0.2444677  33.5630647  19.1279780  -0.2854776
  34.6207043  18.5615953   0.3784595  34.3332057  19.0551135  -0.1585065
   5.9032067  24.7232135  11.8339761   6.3716211  25.4271561  11.6190521
   6.0566001  24.1670932  11.1794990   5.9950605  24.7450499  11.7055476
  19.2451450  20.9466889  32.2051437  19.1035480  20.3603695  31.5748109
  19.5104038  20.4620033  32.8803156  19.2634124  20.7884794  32.2117673
  66.6693317  37.4252750  11.1227486  67.1611624  37.6264454  11.8146825
  66.3151646  38.1890098  10.8938065  66.6896674  37.5678114  11.1911420
  31.0845456 -21.8454079  45.7654553  30.7033305 -22.5464500  45.4128157
  30.6004323 -21.6826680  46.4727668  30.9567188 -21.9249263  45.8178476
  10.4271272   4.1593760  68.0315133  11.0726489   4.1132440  67.4464381
  10.2363215   3.3234783  68.1927826  10.4942981   4.0290820  67.9689085
  -8.6398632  10.7397934  16.4623200  -8.7971959  11.3980727  15.9118164
  -9.3673592  10.2599724  16.4215664  -8.7705706  10.7661554  16.3749792
  41.7963064   3.5759136 -25.5980564  42.5148283   3.1885625 -25.2901199
  42.0138642   4.4203673 -25.6246279  41.9345847   3.6434370 -25.5564930
  15.8850796   2.8192404   0.1648412  15.9007346   3.0912456  -0.6639577
  16.3599580   2.0875315   0.1495997  15.9575415   2.7513327   0.0401591
  11.4110642 -15.1212228  35.8387367  11.6782084 -14.7904343  35.0769280
  10.5496210 -14.9833762  35.8314262  11.3232740 -15.0519957  35.7251220
   1.3555758  40.4518265  36.7713318   1.3248016  41.1901619  36.3075933
   1.0153719  39.8564707  36.2319318   1.3007747  40.4729475  36.6231476
  53.5948377   6.6362825  48.2796663  53.8856541   6.4230946  49.0740946
  53.7571293   7.4917136  48.2245426  53.6617711   6.7311551  48.3888768
  43.8377237  29.2899241 -12.8120031  43.4157213  28.8859644 -12.1640293
  44.1121063  30.0329558 -12.4462742  43.8159172  29.3400121 -12.6622583
  28.9774578  26.3010622  10.1294326  29.1971663  26.5522117  10.9355292
  28.5252367  26.9796144   9.8192671  28.9431109  26.4383983  10.2026919
  36.1418257  27.4721361  20.7943994  36.5484688  27.6425201  20.0415712
  36.5276933  26.7418181  21.0752578  36.2588959  27.3894223  20.7246797
   9.0135627  11.1625800 -40.3884653   8.2389018  11.4764599 -40.1384265
   9.4633223  11.1084778 -39.6428589   8.9655681  11.2009545 -40.2413880
  35.5536152 -35.4632514 -38.6764603  35.7940167 -34.7093715 -39.0438998
  35.5409928 -35.2808366 -37.8234040  35.5872629 -35.3249414 -38.6047247
  32.0032696  -8.1788243 -11.4363754  31.1820816  -7.8919459 -11.3693639
  32.3342091  -8.0411338 -10.6409762  31.9308498  -8.1161067 -11.3089796
  13.0769334  16.6942955  23.7409413  13.1909988  17.0025281  22.9327821
  12.6306884  17.3281900  24.1411695  13.0278636  16.8334671  23.6806815
  44.8858572 -12.3088654 -18.0402150  44.1394436 -12.5957524 -18.3890734
  44.6454005 -11.5953586 -17.5995018  44.7400761 -12.2458449 -18.0266462
  29.6191366  18.9543097 -14.3509961  28.8401635  18.9746844 -13.9586629
  30.1562193  18.6680489 -13.7259070  29.5834044  18.9150329 -14.2007019
   4.9633601 -26.3562192  33.1370974   4.8552888 -25.7210382  32.5488752
   5.0776596 -25.9244786  33.8865474   4.9642801 -26.1986129  33.1609141
  42.4971655 -21.4964019  64.0922305  42.7331311 -20.8526101  64.6316670
  42.4987274 -21.1167757  63.3067236  42.5322532 -21.3452220  64.0558808
  51.9604814   4.9719291   4.1203279  52.0918482   4.3124090   3.5645263
  52.4272117   4.7451932   4.8216789  52.0488327   4.8410109   4.1418286
  48.5948848  19.2717718  29.8870498  47.9746989  19.8542245  30.0800727
  49.2572512  19.7637440  29.6035473  48.6011157  19.4304865  29.8736841
  28.8544962  22.2310305  27.7946853  29.5262689  21.8945534  28.2381311
  28.5755926  22.8803377  28.3063028  28.9125311  22.2772420  27.9357679
 -23.2771044 -19.6637767 -45.1841145 -24.0538785 -19.8071725 -45.5545187
 -22.8539050 -19.1814155 -45.7751894 -23.3293347 -19.6137045 -45.3261448
  22.8000912  29.5117871 -24.9742479  23.0468649  29.5523357 -25.8100697
  23.4442665  29.0648219 -24.5916256  22.9317028  29.4517510 -25.0411948
  48.4269015   5.8937562   6.1111958  48.8986924   5.2593191   5.7423564
  48.9798293   6.2559978   6.6805739  48.5782735   5.8535473   6.1408195
  34.6525843 -14.7069774  16.4100665  34.6299568 -15.5627842  16.2420715
  35.1679716 -14.3882807  15.7824138  34.7253751 -14.7863196  16.2925329
  37.1036296  24.1214637   9.6094496  37.6877910  24.6171686  10.0267883
  36.7656560  23.6255785  10.2427042  37.1399966  24.1214370   9.7646439
 -24.4221937 -22.8844134  32.4617274 -23.9692535 -23.1853305  31.7795004
 -24.8303092 -23.5930738  32.7656708 -24.4155721 -23.0335488  32.4058471
  22.2547997 -57.1213163   8.3963594  22.9081307 -57.4480712   8.8733598
  21.7830714 -57.8243358   8.1857042  22.2816262 -57.2734352   8.4357041
  47.5324134   8.4134392   8.7029410  47.8683121   8.9610676   8.1126744
  48.0655238   8.4983728   9.3883015  47.6607839   8.5068816   8.7169883
   7.9081136  -9.5029367  77.2275649   8.3032484  -9.0197446  76.6180295
   7.0687147  -9.4861131  76.9903606   7.8424867  -9.4290741  77.1024840
  43.9297623 -38.2586505  29.6285975  43.9357128 -37.6050018  29.0508021
  44.7761535 -38.4056002  29.7808058  44.0556707 -38.1838006  29.5657295
   4.5124564 -10.1703725 -26.0326487   5.0095195 -10.8052817 -26.3657524
   4.8257872 -10.0669184 -25.2250221   4.6321683 -10.2488794 -25.9625519
  45.5295694 -47.5519896   6.1244088  44.9445123 -48.0244200   6.5667405
  46.2853389 -47.9559611   6.2879913  45.5547872 -47.6814522   6.2139148
  58.1464215 -10.0996218  14.6755671  58.4687707 -10.4876656  13.9637719
  57.8025710 -10.7595201  15.1310236  58.1432453 -10.2544244  14.6377006
  33.9320231 -33.6210209  64.7263649  33.2751778 -33.1737899  64.3662562
  34.0048659 -34.3249808  64.2161945  33.8457539 -33.6589450  64.5978068
  38.0560210  -8.8559997  27.2293057  37.6427994  -8.4327384  27.8705835
  38.5530119  -9.4348183  27.6525181  38.0683955  -8.8789787  27.3865529
  82.4920554   2.3956651  19.4156300  83.1547626   1.8464860  19.5583220
  81.7893354   1.8790674  19.4368693  82.4861447   2.2382279  19.4398460
  50.7337485 -23.9751747  22.6655444  51.3309385 -24.0540769  23.2966371
  51.2113817 -23.8674521  21.9434627  50.8925221 -23.9709174  22.6521035
  54.4054245 -25.9835651  28.4046608  53.7037122 -26.2988605  27.9931658
  55.0368441 -26.5480399  28.1953356  54.3950408 -26.1135253  28.3129529
  35.6035718 -13.2897530  55.0266582  35.6462514 -12.4197786  55.0762816
  35.0645190 -13.4307249  54.3553248  35.5302472 -13.1820643  54.9348188
  26.8362791  47.5305760   7.3495339  27.4251669  47.0761904   7.8054774
  26.7716849  47.0886825   6.6000693  26.9137281  47.3981771   7.3061748
  21.3592568 -19.5894812  40.0636603  22.1355301 -19.8962248  39.8097948
  21.5593592 -18.8615287  40.5009059  21.5034876 -19.5272599  40.0907493
  11.2942008  11.1319191 -11.1834047  11.8539057  10.5208531 -10.9105160
  10.6296072  10.6703680 -11.5096339  11.2787065  10.9734715 -11.1912842
  16.8454239 -42.2957395  16.9248250  17.2407369 -42.7779290  16.3146115
  17.4838164 -41.7835815  17.2269650  16.9981235 -42.2913126  16.8793162
  31.8756824  27.7382358   2.7521285  32.4619001  28.2349047   2.3388390
  32.3323029  27.3818305   3.4045183  32.0297311  27.7589556   2.7874485
  77.8018404  40.2501489  27.4632637  77.7555071  41.1202668  27.5067093
  76.9716755  40.0057951  27.3525524  77.6723635  40.3425871  27.4533272
  45.9392415   6.8691177  46.1761030  46.7199283   6.6037699  46.4611613
  45.9888310   6.7609764  45.3118196  46.0618904   6.8139457  46.0905395
   8.4191486 -20.7099907   7.6387453   8.0233613 -21.4062594   7.2927657
   8.2354467 -20.0689843   7.0761584   8.3335461 -20.7181541   7.5045313
  12.5636284  27.1615757  44.2684133  13.2415708  27.0126612  43.7398698
  12.8363039  26.8620964  45.0411356  12.7040543  27.0953387  44.3044835
  -8.5067185  42.5661934  25.8187163  -8.2233960  42.7873112  26.6136848
  -9.3664433  42.4657696  25.9279315  -8.5918650  42.5840224  25.9522829
  38.7312586 -19.7555531  64.6170902  38.2328341 -19.6986395  65.3308643
  38.9903809 -20.5886100  64.6137318  38.6959088 -19.8702054  64.7220333
  -0.4209346  -5.5740801   2.2241811  -0.7705064  -4.9087643   2.6672318
  -0.9448486  -6.2451809   2.4146473  -0.5499665  -5.5749347   2.3177646
   6.5636988  31.0528833  32.1092799   7.3166197  30.6323244  32.2411132
   6.6571185  31.7893342  32.5675946   6.6887208  31.0995470  32.1964569
   8.5866141   3.6047991   9.2120330   8.1396626   4.3533457   9.2444659
   9.1904248   3.6992745   9.8346297   8.6097854   3.7293308   9.3087944
 -30.9206556  47.5564492  32.0696510 -31.2621243  46.8267706  31.7348260
 -30.6955878  48.0195576  31.3653678 -30.9378504  47.5170713  31.9161533
  22.4715063  57.5317321  48.2816538  21.9134228  57.4707391  48.9494578
  21.9515104  57.5600843  47.5816968  22.3122518  57.5269104  48.2769042
  23.3821343  43.5801806  60.4007858  22.6638678  43.8664902  60.8048399
  23.4239133  42.7389523  60.6282256  23.2822031  43.4982077  60.4940705
  11.9708778  16.7141869  43.7708711  12.3644384  16.1070251  43.2834246
  12.2272613  17.4655486  43.4091219  12.0668879  16.7354882  43.6454274
  37.3779433  50.8325949   5.6905728  38.0072801  51.4060781   5.5003314
  37.8163850  50.1324795   5.9711914  37.5356762  50.8138887   5.7039234
  19.6564661  51.1803237  44.8624247  19.2306357  51.9223448  44.6915078
  19.0788612  50.5600372  44.6556476  19.5082380  51.1983064  44.8066315
 -15.7170736  59.7442676  28.7626457 -14.9828147  59.3261287  28.5454746
 -16.3286309  59.3471280  28.2836705 -15.6989480  59.6238342  28.6598106
   8.4318615  35.1379106  36.8227614   9.0543904  34.9677677  36.2356935
   8.8725159  35.2191142  37.5713395   8.5889156  35.1247724  36.8466198
  14.7778312  -0.7899941  -9.2050709  14.7793095  -0.1784343  -8.5828716
  15.5595122  -0.7008942  -9.5821327  14.8935200  -0.6864922  -9.1688590
  24.2546308  63.6642615   1.0442500  25.0715400  63.9540741   0.9452172
  24.1334737  63.6834233   1.9080169  24.3574077  63.7099034   1.1572170
  -8.8971688  61.7739648  73.2814969  -9.1779772  60.9548952  73.1746738
  -8.2188188  61.8310571  72.7358585  -8.8384437  61.6614050  73.1851149
  21.9989186  56.0834970  17.8186415  22.6917183  55.9725116  18.3371493
  21.8495265  56.9421923  17.8569036  22.0791911  56.1939492  17.9008879
  27.0852398   8.5686863  25.7149816  27.6095664   8.0438090  25.2559337
  26.9419857   9.2387946  25.1750069  27.1415321   8.5901399  25.5674054
 -13.0179564   7.0906705  -4.5673199 -12.4934014   6.4345723  -4.3316999
 -12.8172511   7.2227055  -5.4060234 -12.9108205   7.0132556  -4.6564078
  -6.8227697  -0.6068977  18.4326823  -6.2329851   0.0304956  18.3488764
  -7.4533556  -0.3774935  17.8751210  -6.8287969  -0.4788538  18.3379392
  22.4556112  20.1331782  52.2399699  22.0157332  19.3865026  52.1393597
  21.8497267  20.6910023  52.5278517  22.3011305  20.1052810  52.2676338
  -8.0846234  54.0489876  35.8067509  -7.6292273  54.7308931  35.5088267
  -8.8968504  54.2085544  35.5311329  -8.1373346  54.1732904  35.7220269
  34.7398682  -0.9598339   8.7243548  34.1327013  -1.1422748   9.3236904
  35.3000461  -0.4441173   9.1502381  34.7329269  -0.9106022   8.8758007
  19.9999230  20.1002885  27.3495811  20.5982302  20.6900461  27.1143068
  19.5540695  19.9556136  26.6137663  20.0224435  20.1660364  27.2061312
  -6.8254099  50.0630197  19.7618856  -7.6181222  50.2126204  20.0940999
  -6.8721145  49.2375208  19.4834797  -6.9494090  49.9631756  19.7698342
  39.5429556  40.0279913  64.5890014  39.8212203  40.1364470  63.7692785
  38.6926256  39.8564570  64.4959719  39.4584497  40.0186733  64.4541691
  -8.5064122  66.7352318  84.4850561  -8.2046073  65.9260903  84.6089250
  -8.2060462  67.1742980  85.1765333  -8.4174592  66.6805640  84.6054996
  -7.8942416  76.1897919  12.8128342  -8.1503138  77.0003877  12.6166174
  -7.3746524  75.9719140  12.1467292  -7.8553147  76.2773486  12.6854515
  46.3914422  45.5580164  40.3962992  46.4133002  45.7402352  39.5433876
  46.8613588  46.1994970  40.7552150  46.4640874  45.6796938  40.3233258
 -12.2360368  -6.2235999  52.1617390 -11.9778102  -6.5479097  51.3940922
 -12.4416146  -6.9333480  52.6255654 -12.2282594  -6.3763515  52.1168585
  -8.2222636  15.6745116  30.6121903  -8.6348955  15.9793484  31.3178454
  -8.1317263  16.3798726  30.1068108  -8.2698436  15.8237386  30.6417752
  10.1585757  36.9424658  39.1244305  10.0757614  37.4076547  38.3910271
  10.9847347  37.0852342  39.3657148  10.2683830  37.0322736  39.0517344
  18.2252397  27.3845406  30.3489757  18.5650029  28.1805428  30.2390622
  17.3965908  27.4780072  30.0925685  18.1530212  27.5159335  30.2948626
  40.4537875  22.9770194  47.8426135  40.9175267  23.2411377  48.5327779
  39.6934300  22.7271527  48.1898347  40.4099709  22.9791247  47.9958567
  26.2132317  14.1416873  48.2160059  26.2191986  13.4755929  47.6526036
  25.5810927  14.6610196  47.9129650  26.1207332  14.1200075  48.0880144
 -48.6860950  23.9395450  55.1403269 -48.4082728  24.7004332  54.8162844
 -48.8106540  23.4475987  54.4306696 -48.6634549  23.9792733  54.9876281
  -6.2146209  13.9876721  72.2163121  -6.1673529  13.5097657  71.4879505
  -6.9540016  14.4400393  72.1172185  -6.3168602  13.9838994  72.0940799
  59.8899235  50.8371042   0.8485758  59.8417144  51.5464935   0.3430246
  59.3531707  51.0207109   1.5113915  59.8035126  50.9690181   0.8718070
   0.8967946  39.5467184  13.6037547   1.5834900  39.5311286  14.1416636
   0.9932512  40.2973235  13.1696722   1.0124823  39.6552953  13.6190920
  15.2278955  53.9111806  83.3174118  15.2708481  53.5235032  82.5370267
  14.3751994  54.0607207  83.4255166  15.1082797  53.8760028  83.2181022
  -8.1826913  17.7138527  46.4174709  -8.2615456  17.6567891  45.5504846
  -8.6781960  17.0589993  46.7120583  -8.2675360  17.6086879  46.3329158
  39.5286315  71.1343392  41.9256591  38.7099475  71.0324909  42.2094250
  40.0004447  70.6607297  42.4862176  39.4773915  71.0493322  42.0503832
 -16.1115935  26.0745286  28.0339928 -15.8567946  25.2769728  28.2791903
 -15.7828343  26.5942078  28.6528550 -16.0253899  26.0334805  28.1616322
  14.6960211  33.2020871  17.9945361  13.8668044  33.1655946  17.7258217
  15.0844644  33.7016922  17.3939979  14.6309098  33.2704984  17.8661296
  55.7634080  40.0992359  30.1573120  55.3245659  40.0192915  30.9070894
  56.5589891  39.7989237  30.3522552  55.8161057  40.0430641  30.2968667
   6.8893222  49.4363227  60.4725521   6.0465039  49.2113345  60.4592456
   6.9100589  50.1222066  61.0113219   6.7678838  49.5044065  60.5501739
   3.4565027  57.9919289  40.6579016   2.6225457  57.8046758  40.8328059
   3.4154138  58.7766892  40.2789523   3.3272404  58.0801930  40.6277599
  29.5554147  33.7140892  47.6628686  29.1131989  33.6323835  46.9152665
  28.9313794  33.7040352  48.2724737  29.3979075  33.7005344  47.6424836
  27.5269802  57.6240557  34.4301736  27.6287382  57.8246057  35.2731235
  28.1284667  58.1123946  34.0290767  27.6308639  57.7258188  34.4954444
   6.2478039  33.7479874  74.6564503   6.2707735  33.5246182  75.4994913
   7.0795357  33.9350635  74.4710741   6.3740609  33.7426261  74.7536009
  17.0914621  19.2703972  43.5431680  16.6604656  18.7312213  43.0096224
  17.9233730  19.1823401  43.2955601  17.1506854  19.1777420  43.4277755
  26.4436181  48.8652916  34.7090076  26.7258461  48.4630700  33.9881021
  27.0699476  48.7015084  35.2938375  26.5778308  48.7816811  34.6889065
  27.0498112  33.4534102  49.9734710  27.4273628  34.1738186  50.2890751
  26.2046334  33.5673547  50.1574021  26.9807331  33.5766613  50.0472626
   6.9312460  48.4036299  57.1645780   6.6550731  48.3607609  56.3381215
   6.2261173  48.1823545  57.6282268   6.7862875  48.3646104  57.1109838
 -11.7462997  16.9721096  70.4365352 -12.5593072  17.0434684  70.7448635
 -11.3229881  16.5478108  71.0705047 -11.8038658  16.9199731  70.5757320
 -49.9083782  20.8399778  60.5964262 -50.1382719  20.0038266  60.5008245
 -49.1214767  20.8804798  60.2218798 -49.8260967  20.7224440  60.5269756
 -29.3907192  42.4544516  29.0114463 -29.0273808  42.2909437  29.7875841
 -29.3471829  41.6870054  28.5988079 -29.3306154  42.3169305  29.0651426
  43.2331623  53.1074450  25.2190089  42.4701742  53.0356515  25.6359433
  43.7724268  52.6098383  25.6909421  43.2001137  53.0233329  25.3503130
  16.4849199  -8.9672473 -13.8631928  16.4466228  -8.6982191 -13.0341593
  17.1418076  -8.5020429 -14.1996792  16.5762985  -8.8587860 -13.7904335
  21.6747658  32.5575426  32.0075596  21.5116288  33.1107809  32.6621230
  21.1851041  31.8616722  32.2002651  21.5783340  32.5364729  32.1327187
  13.9675610  40.3709305   6.6612635  14.5553115  39.7853763   6.9311065
  14.3313140  41.1366598   6.8673749  14.1081177  40.3975461   6.7315718
   8.8661046  22.1246561  76.9366652   9.1847074  22.9158069  76.7530564
   8.2286419  22.2880908  77.5094391   8.8190024  22.2656681  76.9941529
  27.0381230  56.3838365  71.3803423  26.4814904  55.7372201  71.5625152
  26.8590483  56.9854610  71.9862464  26.9294439  56.3771903  71.4967575
 -24.2098539   6.2018558  59.2078325 -24.1217512   5.3352481  59.1591639
 -24.9632497   6.3549337  58.7953989 -24.3081314   6.0964527  59.1397182
 -42.7200871  80.9247686  37.3575748 -43.3942790  81.3664285  37.6915528
 -42.5877766  80.2846183  37.9353647 -42.8001341  80.8954475  37.4922617
  31.6204269  -4.8543661  18.1720260  31.2742126  -4.4998595  18.8900790
  32.2718983  -5.3463125  18.4797813  31.6655197  -4.8746688  18.3235590
   6.5037901  23.3843450  50.4417349   6.6829814  22.6169249  50.8160295
   7.2442176  23.8361445  50.5354568   6.6396368  23.3377214  50.5108706
 -20.1727200  30.1328980  29.8112822 -20.7659492  30.7329359  29.5895321
 -19.5379195  30.2449863  29.2234013 -20.1665791  30.2380937  29.6916830
  39.4891238  46.0675618 -14.5268686  39.8580048  46.6104926 -13.9521578
  39.6300139  46.4557196 -15.2953886  39.5644275  46.2051028 -14.5554982
 -20.1573033  33.3441574  65.8082589 -20.2333031  33.2595254  64.9432727
 -19.3691102  33.7038733  65.9107070 -20.0520977  33.3847930  65.6956163
   4.3009553  16.2542988 -28.0575240   3.8245612  16.6480176 -27.4417532
   5.0920497  16.6099246 -27.9635053   4.3474431  16.3649924 -27.9526735
 -37.3273803  50.1792928   6.4193942 -36.8457550  49.7066376   6.9723624
 -37.5678644  50.8697528   6.8953899 -37.2917587  50.2114670   6.5713934
  62.7431169  31.8870754  42.2238670  62.7349573  32.0445203  41.3657970
  62.2912659  31.1447174  42.3005142  62.6751639  31.8006717  42.1084348
  32.7603174 115.7653327  -5.3348249  32.8493521 116.3105851  -6.0100376
  33.1821253 116.1701487  -4.6872590  32.8357794 115.9056774  -5.3389089
  40.2994683  42.8403300  42.3525766  39.8776799  42.7030858  43.1038409
  39.7167939  43.2699776  41.8657162  40.1510884  42.8835240  42.3916345
 -14.3045881  13.6205893  18.0683988 -14.6527638  14.1953428  18.6247904
 -14.9674279  13.4221039  17.5369983 -14.4539360  13.6761718  18.0720905
  -4.5540896  45.6144429 -10.4528154  -3.8037938  45.6426775 -10.8971110
  -5.1547103  45.8200872 -11.0512338  -4.5319795  45.6489916 -10.6068457
   5.5756102 -14.5730454  15.9733804   5.3746078 -13.8120467  15.5970580
   6.4175048 -14.6846258  15.7736234   5.6702832 -14.4771130  15.8882816
  54.6584624   9.3601744  37.2207487  54.9810592   9.6204581  36.4530748
  53.9592447   9.8697570  37.3328184  54.6028277   9.4738995  37.1239025
   4.1108657  32.2980883  22.8057068   4.2200612  31.5641998  22.3467694
   3.7259483  32.0256616  23.5397107   4.0701359  32.1494348  22.8463398
   8.8084908  46.4474026  34.7937645   8.0827059  46.7775004  34.4396302
   8.6892825  46.5621272  35.6503666   8.6836679  46.5131120  34.8679894
 -16.4943279  52.0725992  25.3303927 -16.0555863  52.7793967  25.0675569
 -15.8694428  51.4752631  25.4480694 -16.3372083  52.0887689  25.3089497
  -7.1535543  32.3400835  45.2155141  -7.0041469  33.0704224  44.7622790
  -6.3728881  31.9514645  45.2414962  -7.0161633  32.3905626  45.1524001
  44.2408717  48.6596169  67.1745967  44.1327142  49.4781457  67.4564691
  43.8854364  48.1759733  67.8077587  44.1723895  48.7090864  67.3097661
  46.5699901  16.6157767  16.3752780  47.1247291  17.0948567  16.8484444
  46.9031378  15.8107841  16.4215274  46.7011493  16.5676327  16.4520064
 -31.1375563  -0.2336439  -0.9788761 -30.2837046  -0.3457228  -1.1185731
 -31.3073523   0.5359564  -1.3530741 -31.0365072  -0.1365144  -1.0547890
  20.3546769  29.7212877  24.0973413  20.5155854  30.4782398  23.6945119
  20.3198279  29.1444477  23.4437507  20.3732985  29.7478940  23.9412863
  45.6246808  39.8805654   2.6842488  46.4904161  39.9380457   2.5929367
  45.3274155  39.9454364   1.8665908  45.7086556  39.8986392   2.5499752
 -12.5196537  15.6754410  77.0241439 -12.6559051  16.1195430  76.2856667
 -11.6809819  15.4410815  76.9708079 -12.4158918  15.7064243  76.9071768
  24.3684632  32.1777319  -5.4875667  24.0907080  32.9755613  -5.2697137
  24.0873817  31.6763532  -4.8312496  24.2859115  32.2215238  -5.3584337
  15.9224433  -7.7685995 -11.4242616  15.5339543  -8.1433780 -10.7388735
  16.2626659  -7.0369605 -11.0924597  15.9153134  -7.7158839 -11.2740017
  45.5156618  79.6139285  27.8615381  46.3376684  79.6402242  28.1526620
  45.5921330  79.8046900  27.0136574  45.6483855  79.6459923  27.7792936
   8.4209016  57.8385486  15.3071594   9.0743230  57.6868446  15.8649818
   8.7548537  58.4254750  14.7547710   8.5667570  57.9028399  15.3079621
  21.0629101  27.6702724  -0.7343531  21.0021343  27.1622841  -0.0276752
  20.2497743  27.6802686  -1.0503433  20.9338153  27.5967087  -0.6766405
  12.0518677  25.1504392  18.1881131  12.1790352  24.6865145  18.9159468
  12.2656238  25.9630567  18.4228485  12.1022292  25.2019483  18.3303044
  33.7551302   6.1881776  28.1166152  33.0275950   6.2508959  28.5940023
  34.3370894   5.8518778  28.6728214  33.7336256   6.1477640  28.2692982
  16.9507126  18.7541461  39.7108357  17.4027767  18.0201344  39.8450159
  16.1424306  18.4700544  39.5461795  16.8980919  18.6037513  39.7063338
 -12.1801699  43.1841727  39.4675895 -12.2595599  43.8670005  40.0047886
 -12.3262882  43.5260240  38.6783325 -12.2134821  43.3355389  39.4303553
  -6.6645174  46.3282574   9.5344977  -6.7985027  45.9608388  10.3143637
  -7.0736812  47.0962887   9.5965658  -6.7447517  46.3874362   9.6588687
  66.6457162  85.4955254   1.7019667  66.0360333  85.7969156   2.2484009
  66.2112450  84.9262233   1.2037003  66.4914731  85.4559493   1.7090821
 -12.9178659  60.2834771  56.2699829 -12.0795200  60.3972088  56.0569554
 -12.9234417  59.5112097  56.6758295 -12.7948486  60.1861978  56.2984663
 103.3278212  43.8075049  33.7725685 103.9423104  43.6159204  33.1836390
 102.6253439  43.3788090  33.4829396 103.3148236  43.7158767  33.6427873
  21.0012964  32.8396960  13.8080475  20.8983804  32.0313368  14.1196615
  20.7872803  32.7636169  12.9657004  20.9544790  32.7090462  13.7296473
  65.8309306  60.5606626  28.7398525  65.6053561  60.6532188  29.5775213
  65.1730644  60.9367264  28.3075013  65.7004282  60.6298874  28.7997262
  37.8438505  18.9639246  36.1802385  37.0724040  18.6192205  35.9630087
  37.7310726  19.2134872  37.0085738  37.7132324  18.9498703  36.2705114
  61.3905242   5.6782251 -10.8908039  61.0775495   6.4781138 -11.0436582
  60.8690283   5.3704637 -10.2627398  61.2672557   5.7509225 -10.8206056
  33.9702696  52.3067190  53.8003391  34.1411655  51.6112519  54.2985957
  33.1998697  52.1154076  53.4383674  33.8817105  52.1757235  53.8204712
  -4.1137344   4.9246684   3.7491484  -3.6672717   5.5017609   3.2708442
  -4.9021621   5.2897961   3.8279081  -4.1642497   5.0638538   3.6901274
  47.0102548  36.8614499  45.8938716  46.5791958  37.5809418  46.1339948
  46.9688003  36.8786598  45.0225939  46.9404548  36.9702760  45.8006371
  -0.3370886 -24.4112645 -16.3794278  -1.0747417 -24.4076551 -16.8452544
  -0.5874563 -24.1188587 -15.5965137  -0.4830396 -24.3675369 -16.3325874
  38.5405063  38.3680659  -1.5654772  39.2689741  38.7595259  -1.8433858
  38.7524185  38.0820063  -0.7689832  38.6794198  38.3836357  -1.4888714
  41.2560285  55.4186416  -7.9808682  40.4191904  55.6315105  -7.8562553
  41.2134644  54.6425065  -8.3770274  41.1261227  55.3354356  -8.0209812
  27.5466211  13.4800154  91.6548028  27.0965236  12.8514220  92.0590578
  27.0149353  13.7308709  91.0101934  27.4015915  13.4242157  91.6192975
  -1.4959384   8.0795847  35.9458695  -1.1751708   7.7903927  36.7039035
  -2.3048752   8.3350687  36.1495575  -1.5680511   8.0746053  36.0879357
  37.8765066  63.3161189  40.2865823  38.2465917  63.9386354  39.8001159
  38.5077536  63.0893155  40.8444595  38.0244240  63.3745739  40.2971312
  -8.0325663  11.2946328  42.7631133  -8.4582985  11.9722097  42.4155775
  -7.2042399  11.5667798  42.7939518  -7.9730948  11.4349266  42.7163306
  -4.9905369  16.1172098  15.8735681  -5.7453653  15.7678209  16.1368191
  -4.3892183  15.5745161  16.1976654  -5.0132135  15.9854308  15.9603315
  35.7350852  17.4317844  83.9319394  35.1033471  17.4060060  84.5330900
  35.8290988  16.5967916  83.6972310  35.6556522  17.3046307  83.9860704
  17.7900215  46.7701945 -26.2293336  18.4430653  46.5391524 -25.6989632
  17.0766232  46.4997864 -25.8061530  17.7811059  46.6961200 -26.0884745
  26.3445590  -2.0483156  -1.3050665  25.6093948  -2.5178709  -1.3188882
  26.0828283  -1.2657396  -1.0218503  26.1972971  -2.0020760  -1.2652714
 -13.1363874  61.1115609  42.2212192 -13.4583425  61.9198204  42.2860346
 -13.4403750  60.7118466  42.9346332 -13.2288521  61.1719115  42.3361797
 -30.1727376  10.8979944  18.7223636 -30.8308725  11.4115305  18.9758959
 -29.5243536  11.4593960  18.5624705 -30.1741780  11.0567848  18.7361961
  -6.5210885  74.3770924  10.8959938  -5.6806504  74.5424494  11.0617057
  -6.6601641  73.6097350  11.2870949  -6.4174828  74.2881645  10.9782466
  13.9432660  69.1270293  34.4486422  13.2566672  69.0034102  33.9247721
  14.6276684  69.0257966  33.9171492  13.9429415  69.0938141  34.2927433
  -7.4735922  48.1971570  -2.9060383  -7.7837668  47.8534494  -3.6454951
  -8.1917785  48.4514165  -2.4809500  -7.6255023  48.1839436  -2.9524770
 -10.7994505  43.6996524   6.0072102 -10.3300506  44.3861723   5.7435938
 -11.1357882  43.9612690   6.7685072 -10.7797944  43.8397117   6.0807279
  29.5549939  22.3774049  -8.2140381  29.7020850  21.8173570  -8.8666100
  30.3464938  22.5031020  -7.8692663  29.6936432  22.3132423  -8.2595065
 -14.5574233  37.6691348  13.6502528 -14.6204562  36.8708334  13.3040141
 -13.6971954  37.8103756  13.6848731 -14.4396612  37.5720734  13.6042204
  -2.0970527  79.6188786  15.8739482  -1.6781507  79.0159337  15.4026541
  -2.4573409  79.1589377  16.5218574  -2.0883943  79.4618684  15.9000379
  47.6265902  27.4752749  57.9225338  48.4222328  27.6940462  57.6392823
  47.1720212  28.2163735  57.8498738  47.6769738  27.6170675  57.8699584
  35.0722408  33.3972573  23.3573929  34.9248904  32.6674436  23.8121449
  34.6282757  34.0060985  23.7971052  34.9848913  33.3793871  23.4895237
  52.9250003  39.0303349  -3.3347935  53.7037646  39.3917297  -3.1796824
  53.0745605  38.1752849  -3.2472679  53.0621329  38.9574119  -3.2989510
  42.0585087  62.3185640  11.4962286  42.7361642  61.8482530  11.7803590
  41.4139299  62.1000806  12.0420516  42.0633948  62.2168149  11.6188298
  -0.8250173  57.1991715 -12.0343717  -0.1045576  57.4410267 -11.6059055
  -0.5835346  57.2243928 -12.8723392  -0.6829186  57.2386242 -12.0948635
  18.0503450  42.8452367 -10.5369677  18.8285019  42.6516247 -10.1932735
  17.7619386  42.0783456 -10.8366999  18.1226912  42.7033506 -10.5304736
  13.5696259  44.0560306   4.2673471  13.6690973  43.2148498   4.0583978
  14.1157785  44.1666177   4.9386349  13.6649979  43.9481069   4.3356441
  65.5577616  50.1813656  39.5480865  64.9186727  50.4097317  38.9998586
  65.2748187  50.4657441  40.3228198  65.4215585  50.2571085  39.5815460
  51.2637522  36.7338887   6.2500045  50.9459955  37.5342284   6.1099098
  50.7042530  36.2142726   5.8279864  51.1341634  36.7753574   6.1669689
  33.4803128  76.6764406  31.5946906  32.9524511  76.0091333  31.4018110
  33.5640766  76.6277565  32.4617275  33.4147104  76.5706739  31.6942775
  22.6914481  36.6821129   8.1683025  22.6348538  37.4258682   8.6208118
  22.3589980  36.8903154   7.3890284  22.6339782  36.8227367   8.1200326
   9.6761826  17.1528908  53.5283444   9.4679850  18.0000033  53.5144234
   9.7259524  16.9399818  52.6837545   9.6527795  17.2465757  53.4015247
  33.6290895  27.4931379  26.6865975  32.9589771  27.9543331  26.3713391
  33.4497759  27.4264068  27.5377927  33.5036117  27.5514084  26.7657664
  52.4068069  40.8086311  -6.1017854  52.1945472  40.6954641  -5.2631683
  52.6316927  41.6504906  -6.1446624  52.4086720  40.9162740  -5.9842382
  18.1974125  29.0354441  56.0964298  18.4350977  28.2206116  56.2981556
  18.1071265  29.0139782  55.2289466  18.2191864  28.9119056  55.9980837
   3.4798219  18.2300494  42.4672259   3.1710984  19.0460041  42.4603614
   3.5025900  18.0122306  41.6227284   3.4375804  18.3184064  42.3414622
   4.0635008  11.5831949  52.1556598   4.3937494  12.0034225  51.4661062
   3.6530976  12.2110177  52.6012462   4.0516603  11.7380135  52.1196209
   0.2251901   8.9858792  41.5524048  -0.3450298   9.4982013  41.1358538
   0.2146664   9.2897287  42.3701482   0.1394023   9.1064445  41.6116692
  46.5386736  65.3469019  24.9234168  47.3343531  65.2014651  24.5964890
  46.3343046  66.1392867  24.6209284  46.6260223  65.4424694  24.8304391
  19.7058268  32.5844746   3.6474100  19.7496718  32.7090664   2.7850331
  20.3554083  32.0243836   3.8070391  19.8082602  32.5201424   3.5435997
 -21.1817654   6.7505847  76.1577170 -21.1173286   6.6435671  77.0211605
 -22.0270095   6.6074691  75.9957917 -21.2971067   6.7136349  76.2613457
   0.9542752  25.8304446  41.8548962   0.8063118  25.9438635  42.7071770
   1.7510253  26.1662888  41.7385455   1.0501144  25.8968100  41.9636082
  19.8946701  43.4022119 -27.5221653  20.5635436  43.6176240 -27.0051106
  19.3386484  43.0017435 -26.9821611  19.9113407  43.3748752 -27.3660159
  37.8642599  12.9935057  29.4627999  37.3539282  12.4452815  29.9101827
  37.9172421  12.6262662  28.6732003  37.7966999  12.8582728  29.4122474
  15.5489111  31.8017085  -4.2597509  14.9350900  31.9053782  -4.8709920
  15.2412843  32.2554804  -3.5810784  15.4127943  31.8840541  -4.2497899
 -13.4415922  -0.1275212  16.9299285 -13.5155168   0.2265090  17.7238663
 -13.0247023   0.4854958  16.4699802 -13.3909292   0.0153316  16.9792656
  59.5061841  52.4415606  54.7916536  60.2251292  52.3250108  55.2719384
  59.5159001  51.7654107  54.2404127  59.6138224  52.3244625  54.7811719
  42.3963122  48.4017019   7.8287874  42.9620661  49.0545870   7.9504550
  42.8572932  47.6899317   8.0337730  42.5479821  48.3930034   7.8770408
  49.0407700   5.6261494  35.8498789  49.6868366   5.0952278  36.0985951
  48.5477844   5.6987988  36.5659982  49.0633832   5.5584531  35.9924050
  -7.9769510  59.8544515  23.6231207  -7.1050622  59.8780367  23.6429506
  -8.1525528  59.3162380  22.9593212  -7.8740951  59.7784303  23.5279931
  42.1939676  43.0151145  12.9719933  41.8140542  43.7959783  12.8879866
  41.5751226  42.4570512  12.7136605  42.0464304  43.0480267  12.9214227
  28.2652193  24.5637437   1.3717771  27.3937720  24.6039263   1.3615567
  28.5009294  25.0471879   0.6848549  28.1713078  24.6410942   1.2687947
  32.6662148  41.4152599   1.2437492  31.9184020  41.7125313   1.5807139
  32.9391621  40.8323188   1.8326626  32.5960674  41.3730606   1.3805205
  -2.3518783  85.0152065  44.3818487  -2.1811543  85.6834714  43.8476063
  -1.6349269  84.5210407  44.3278084  -2.2207504  85.0409245  44.2949472
  30.6363634  39.9222243  15.7769988  30.9459388  39.1130943  15.8800095
  31.0582044  40.2150066  15.0716845  30.7444087  39.8459491  15.6880261
   7.9874206  29.5635505  40.4328129   8.5346217  29.1925387  39.8635495
   7.5098399  28.8941842  40.7243691   7.9977050  29.4098652  40.3917898
  -6.1931570  65.2979699  -8.8752141  -6.0039425  66.1363796  -9.0249025
  -5.8690804  65.1536819  -8.0781602  -6.1173333  65.4005060  -8.7795849
  -0.5447991   2.3982472  17.1522473  -0.4952905   2.6423421  17.9883730
   0.2043174   1.9715705  17.0184153  -0.4268257   2.3712761  17.2559906
   8.7671048  40.8488724  -0.6537096   8.8624897  41.3352511  -1.3716768
   8.0821393  41.2093825  -0.2512243   8.6800116  40.9739754  -0.7003128
  -1.0268260  -0.2858987  28.6288709  -1.2381252   0.4460926  29.0539366
  -0.6561415   0.0033648  27.8939838  -1.0032815  -0.1350384  28.5831039
  75.6560812  14.6777212   1.2770852  76.3362493  14.6331259   0.7325467
  74.9657117  14.5941820   0.7502545  75.6545742  14.6587931   1.1188219
 -22.3377326   2.1233915  12.6332879 -21.9506257   2.6123500  12.0231998
 -22.0724032   2.4825145  13.3828014 -22.2413543   2.2486706  12.6538839
 -27.3252938  -3.9031167  37.9025826 -27.9865974  -3.5632899  38.3590196
 -26.9040088  -3.2020778  37.5989332 -27.3607495  -3.7493594  37.9251525
 -13.2101126  28.2035543  13.2189243 -12.6057112  28.3011690  13.8404626
 -13.6166928  27.4647096  13.4423981 -13.1808903  28.1088315  13.3437500
 -17.1250124  41.9286474  16.0073033 -17.1686900  41.2942993  15.4099472
 -16.2740556  42.1174697  16.0441580 -17.0057606  41.8628341  15.9245057
  -8.6921824  -1.6573197  -7.8571969  -8.5456178  -2.5160508  -7.8098770
  -9.4865801  -1.5652853  -7.5084829  -8.7878807  -1.7705766  -7.7986946
 -15.9371528  38.6937642   2.3589279 -16.6772012  38.2330286   2.3244247
 -15.3352983  38.0994617   2.5727390 -15.9575669  38.5379133   2.3854154
  39.5559120  59.5463539  20.3303927  38.9631350  59.3468078  19.7221688
  40.2908884  59.6543031  19.8729036  39.5769178  59.5328231  20.1729649
  10.6200030  40.2923735  11.1573251  10.8386672  40.0847696  11.9759985
  10.6446238  41.1644498  11.1532947  10.6559412  40.3905298  11.2776647
   9.7169651  50.7678494  -0.6322826   9.3381355  51.5415427  -0.7702190
   9.4307121  50.5374508   0.1589918   9.6187187  50.8481053  -0.5357711
   1.5952810  56.3159590  10.1157004   1.5186681  57.0921388  10.5066159
   1.8779388  55.7920705  10.7534974   1.6257181  56.3532276  10.2676625
  11.7679724  43.4673562   7.6231002  11.7475245  43.8800749   8.3914652
  12.6025070  43.2263352   7.5418577  11.8882298  43.4927195   7.7246023
  18.7846876  12.8545881  11.3317146  18.3001383  13.1485481  11.9949935
  18.8080238  13.5297800  10.7797083  18.7165569  12.9977518  11.3481518
  50.1775448  64.4245378  56.9822995  50.8347812  64.5765744  57.5355308
  50.4750713  63.7727876  56.4844650  50.3185830  64.3507198  56.9904828
  12.4727991  16.3523252  13.0774856  12.5670378  16.1082190  13.9097540
  11.6514752  16.6442874  13.0410887  12.3653936  16.3593945  13.1950522
   8.3066359 104.3768325   1.3819536   8.5714959 103.7627159   1.9421764
   8.4253361 104.0068582   0.6008205   8.3632957 104.2314620   1.3493206
 -12.2254797  13.3004490 -26.5317480 -12.5587944  13.5674604 -27.2925014
 -12.3276413  13.9915521 -26.0091784 -12.2898085  13.4419822 -26.5669326
  54.6894545  79.6463075  14.1420881  55.0385863  79.2223664  13.4642087
  53.9369868  79.9544136  13.8258563  54.6298735  79.6291963  13.9952374
  -7.6030240  28.5811514  40.1125174  -7.9600926  29.2595359  40.5289738
  -8.2335827  28.3186773  39.5697075  -7.7489169  28.6425899  40.0938524
 -23.5938048  18.2358735 -30.5860973 -23.9338072  17.9370162 -31.3319003
 -23.4089004  19.0696078 -30.7645268 -23.6167160  18.3148859 -30.7226255
  -2.2405258  26.9635339 -16.0687172  -3.0345688  27.0943063 -15.7317694
  -1.7044288  27.1283233 -15.4004478  -2.2786297  27.0071945 -15.9202259
  12.8779201  34.6926645  40.3424822  13.5814534  34.2040050  40.1769759
  12.4103481  34.2002101  40.8902090  12.9127765  34.5477337  40.3989441
  16.6627964  21.9231905  36.8510553  17.3282767  21.6943827  36.3353786
  17.0233477  21.9661268  37.6443389  16.8143625  21.8957334  36.8920636
  -5.8984264  34.1188085  10.3616194  -6.4654639  33.6120150   9.9341053
  -5.5369305  33.5774658  10.9424880  -5.9287892  33.9639772  10.3842731
   9.6203582  58.6493406   8.9833185  10.3074316  58.8788330   8.4971056
   9.5750905  59.2795757   9.5848948   9.7151662  58.7763401   9.0003601
  34.6459221  62.4371809  32.8013006  35.2220805  61.8190043  33.0181844
  34.5923193  62.9288687  33.5199864  34.7231143  62.4184959  32.9395035
 -16.2770688  12.2030815 -34.0381508 -15.6086110  12.1859904 -33.4777835
 -16.3022352  11.3895636 -34.3523081 -16.1820414  12.0803834 -34.0017805
  -3.3396056 -15.2385353   3.1289592  -3.7946506 -15.3923166   3.8572620
  -2.6266421 -15.7321976   3.2244583  -3.3015057 -15.3341761   3.2506517
  -3.8826900  25.4894430   2.0473874  -3.3421463  24.9148501   2.4199395
  -4.6676964  25.2587286   2.3501669  -3.9188022  25.3704825   2.1471478
  13.2642903   9.5645356 -10.0518398  13.6507381   9.1047986 -10.6846427
  12.8010299   8.9663911  -9.6173831  13.2529435   9.4082647 -10.0811396
  38.7672652  16.2427787  35.6985579  39.6249569  16.3199978  35.5587662
  38.4827831  17.0674700  35.6888736  38.8519401  16.3760095  35.6764772
  -4.2297437  46.5998956  40.9449230  -4.7377072  46.3296361  40.2891240
  -3.4285115  46.5936557  40.5997744  -4.1864219  46.5590509  40.7970624
 -25.1059386  57.5785183  18.8385034 -25.5152058  58.1741485  19.3272412
 -24.2841549  57.6032113  19.1303962 -25.0450014  57.6701529  18.9538186
  44.8342678  68.4183728  13.2969234  45.0451031  68.4529570  12.4510558
  44.2946143  67.7346314  13.3460299  44.7856945  68.3224789  13.1792254
   1.1238123  51.4732256  12.1950504   0.9512187  50.8848320  12.8156501
   1.6166833  51.0324776  11.6258765   1.1711238  51.3212002  12.2026471
  20.8486803  22.5742951  18.3024590  21.0735428  23.2080970  18.8582211
  20.9269457  22.9508345  17.5193676  20.8934585  22.7235434  18.2688778
  40.0398335  -1.5031257 -32.3163764  40.2552116  -1.1245261 -31.5604569
  40.8072236  -1.7573167 -32.6444599  40.1850086  -1.4847480 -32.2531762
   5.0958833  45.9482464  49.6191004   5.2760661  45.3890539  48.9741373
   5.0965596  45.4458454  50.3323551   5.1225999  45.7914272  49.6291885
  -2.1925852  27.9335763  52.4745431  -3.0358942  28.0597289  52.6590829
  -1.8302717  28.7122039  52.6281907  -2.2636382  28.0672310  52.5245003
  14.4444036  53.1184474  17.1508220  14.6982263  53.3951139  16.3633138
  13.8077210  53.6739625  17.3680264  14.3878473  53.2413778  17.0665764
   7.1008850  51.3436504 -19.4432065   6.6356598  52.0319256 -19.1767815
   7.3929254  50.9931728 -18.6995551   7.0753021  51.3935500 -19.2939974
  49.9947073  43.4562035 -23.1541060  49.1452331  43.4307787 -22.9569088
  50.0450869  43.0100507 -23.9021362  49.8766646  43.3865418 -23.2354754
  80.5435324  10.4894128   5.8278785  81.1947857   9.9101749   5.7892506
  80.9209036  11.2001945   6.1648055  80.6954814  10.5088445   5.8719434
 -13.8049580  37.9044502  -4.4257586 -13.7800767  38.7738064  -4.4946076
 -13.1245114  37.7198139  -3.9119090 -13.7007665  38.0055974  -4.3600229
  27.3308253   9.2997086  15.8089464  26.4845993   9.3989246  15.6213371
  27.3342799   8.6729328  16.4158070  27.2063306   9.2217771  15.8708785
   4.6966951  81.6659859  -1.5659175   4.4724429  82.2393538  -2.1840597
   5.4760702  81.9500324  -1.2956741   4.7786982  81.7926437  -1.6173093
  23.4480233  21.6416978  -2.4242891  23.1174145  21.1722317  -1.7674490
  22.8489144  22.2623428  -2.5547031  23.3106848  21.6640300  -2.3465251
   2.5029936  32.6619872  42.7250979   2.2208993  31.9145217  43.0756084
   3.0927192  32.9487025  43.3005608   2.5484371  32.5939249  42.8618833
   1.0028764  -8.2318921  30.5477383   0.8955403  -7.6384098  29.9173438
   0.2131099  -8.5944951  30.6247285   0.8703558  -8.1977864  30.4659891
  34.1788651  48.4242108 -22.6686831  33.7545228  48.7775515 -23.3441262
  33.5847311  47.8987151 -22.3053669  34.0284151  48.3987799 -22.7147906
  23.3364777  42.1976740  -7.6167233  23.0710174  41.6627463  -8.2527442
  23.0475072  42.9800353  -7.8727436  23.2545769  42.2342251  -7.7484961
 -21.3188513  85.7015066  13.7238823 -21.9368322  86.2553093  13.9932180
 -21.2736054  85.1153493  14.3684845 -21.4034561  85.6967271  13.8588898
 -10.8146936  46.0062549  21.1854596 -11.4510741  45.6271933  20.7245130
 -10.0940850  45.5932245  20.9184979 -10.8022514  45.8892466  21.0779325
  -5.6154386  22.2918244  -1.9166587  -5.6109769  23.1425301  -1.7232178
  -4.9101467  21.9842497  -1.5054402  -5.5105933  22.3720560  -1.8273380
  29.6909914  20.7335694  65.6832635  29.0151375  20.2662035  65.3901251
  30.0766554  20.1998283  66.2555599  29.6481244  20.5856852  65.7245009
  -8.5058460  34.4489845  -0.1176533  -7.9082730  33.9764788  -0.5428408
  -8.5155354  35.2058532  -0.5514681  -8.4190035  34.4909908  -0.2445456
  -6.8543104  38.3527717  -5.5618808  -6.3853773  37.7036343  -5.2156700
  -6.6700274  39.0346788  -5.0498437  -6.7578169  38.3576125  -5.4350999
  61.3169916  44.0494351 -31.2173001  60.9162249  43.3579340 -30.8675119
  61.8327862  43.7002891 -31.8281949  61.3339836  43.8957101 -31.2558709
  -2.3924210  48.0145264  -9.0766922  -3.2242022  48.0811324  -8.8220488
  -2.0034048  47.6166985  -8.4047258  -2.4578265  47.9655981  -8.9398128
  39.2297104  40.4904505  32.2261473  38.7400026  39.7744521  32.1330228
  39.6731697  40.5346434  31.4761271  39.2228786  40.3912110  32.1015975
   4.7886794  28.2213868   1.7029702   4.7551648  29.0874434   1.6031588
   5.3854540  28.1100527   2.3295517   4.8718845  28.3328749   1.7807850
 -40.3492137  12.6823146  10.1508700 -40.6519607  13.4136989   9.7840448
 -41.0212979  12.1292927  10.0907930 -40.4932163  12.7086624  10.0878077
  -7.4812192  61.5323991  -6.3099562  -8.1476428  61.3611415  -5.7735888
  -7.8710937  61.7287936  -7.0653148  -7.6372562  61.5361124  -6.3423057
 -14.3536158  10.9263542 -22.3477189 -14.1135751  11.7528347 -22.4907223
 -15.1017387  11.0036031 -21.9055828 -14.4286700  11.0598537 -22.3035308
  54.6444003  11.7365811  47.1002176  54.6812344  10.8670728  47.0390780
  55.2041816  12.0090888  46.4890516  54.7325327  11.6483918  47.0009042
  30.3342617  -2.5910216 -27.1259884  30.7884742  -3.1558033 -26.6403423
  30.2330455  -3.0085009 -27.8853341  30.3864065  -2.7361218 -27.1664195
  26.0418062  15.9595875  21.0631496  26.8611434  16.1952202  20.8779383
  25.7340939  16.6329052  21.5247727  26.1173837  16.0938582  21.1039813
  32.4103712  23.0357584 -25.8460169  32.4664043  23.8952314 -25.7070711
  32.9754699  22.6981332 -25.2734679  32.5021252  23.1128461 -25.7409144
  43.5902153  29.4827446  89.2587530  43.3448562  29.4569589  88.4219295
  44.3968400  29.1505666  89.2463429  43.6731258  29.4298660  89.1333037
  44.9370975  38.8321192   8.2485923  45.6337857  39.1701746   8.6504426
  45.0380413  39.0813005   7.4186173  45.0549242  38.9188661   8.1853495
  17.2714162  29.2068770  44.1078146  16.9549821  29.6790845  44.7696522
  16.6595097  29.2828898  43.4906177  17.1342812  29.2878604  44.1144089
 -25.5223528  29.8181694   3.9805941 -24.7646983  29.7932864   4.4124275
 -25.6202143  29.0011166   3.6907883 -25.4248878  29.6937982   4.0015745
  -2.0493818 -12.7817813  84.9346460  -2.2762381 -13.6232436  84.9748574
  -1.3701198 -12.7783912  84.3871690  -1.9825522 -12.9055818  84.8597124
  26.4015247 -11.1343735  52.4925224  27.0497237 -10.5618123  52.6072011
  25.9822645 -10.8315646  51.7899079  26.4353437 -11.0050633  52.4056722
  58.7580461   9.1589455  30.6752833  59.2906445   8.8531975  31.2949579
  59.2333388   9.7761761  30.2825202  58.9069324   9.2049579  30.7088028
  47.9788058  -5.0530495  87.0000486  48.7699966  -4.7176181  87.1505228
  48.1326370  -5.9064549  86.9042641  48.1184050  -5.1295649  87.0081274
  31.4685659  60.2039219  60.9578848  32.2142276  60.1960961  60.5050417
  31.3383309  61.0504338  61.1240050  31.5594771  60.3278131  60.9155299
   2.7228018  -5.4803254  29.9019402   3.5688703  -5.3388049  29.7429450
   2.5569635  -6.2263059  29.4810478   2.8232858  -5.5696166  29.8162788
  29.4426663  12.9320879  52.9216914  29.4285281  13.1298850  53.7712889
  28.6280501  13.1000503  52.6583881  29.3202422  12.9861181  53.0082991
  18.0876686  12.3781650  31.5101199  18.9508547  12.2523328  31.5248018
  17.9751058  13.0862349  32.0072176  18.1985511  12.4641735  31.5857203
 -11.2415724  -3.6816549  21.3888324 -10.4352094  -3.4224815  21.5979912
 -11.7093058  -3.4909836  22.1001759 -11.1915499  -3.6152036  21.5248096
   2.4498655   7.3262171  39.0249694   2.6733302   6.6528131  38.5172981
   3.1440995   7.8530221  38.9842864   2.5854285   7.3045614  38.9439662
  41.6115376  27.6672557  45.1870437  41.5871539  27.6733945  46.0591144
  42.2122032  27.0619246  45.0028846  41.6966663  27.5787427  45.2886624
  30.2587627  42.2442909  43.5108616  29.7783628  41.5197501  43.5843199
  29.7455059  42.7857502  43.0586129  30.1119791  42.2172460  43.4549064
  59.1028235  33.0289501  17.6835626  58.4379354  32.6239746  18.0773368
  59.0574290  32.7446169  16.8600132  58.9979002  32.9271250  17.6200759
 -21.1225487  41.1253255  21.3998379 -21.9591308  41.3173134  21.2435989
 -20.6870818  41.6403389  20.8464219 -21.1818017  41.2297641  21.2950073
  55.7548110  57.2286386  16.9197812  54.9686257  57.5716884  16.7605045
  56.2077189  57.4089810  16.1962547  55.7055791  57.3059544  16.7893730
 -45.0351067  36.1337194  33.4595885 -45.7110022  35.6006230  33.3177683
 -45.4119283  36.9021694  33.6287913 -45.1906147  36.1684860  33.4636335
 -40.8649211   6.4953570 -56.7524660 -40.8065524   5.7485848 -56.3051810
 -41.4420491   6.9635966 -56.2955039 -40.9415525   6.4542120 -56.6188901
  -0.0092187  20.4557062  33.8488713  -0.2148095  20.0325974  34.5836168
  -0.7402465  20.8882938  33.6498592  -0.1475765  20.4571064  33.9280102
   1.6128498  56.7619445  42.4516844   1.8673641  57.0748476  43.2252822
   0.9860867  56.1910188  42.6574791   1.5578610  56.7238293  42.5963609
  -3.4042511  47.4754985  13.1127326  -3.7138711  47.6359702  12.3130302
  -3.8319134  46.7555913  13.3576366  -3.5131629  47.3928584  13.0307774
   3.5381964 -12.1578273  39.0742074   4.1734331 -12.2777370  38.4883443
   3.2897017 -11.3321687  38.9412494   3.5953262 -12.0535736  38.9680227
  54.6127857  12.5980791  -6.0572370  54.3319590  12.6796850  -6.8791959
  55.2189920  11.9727755  -6.1087057  54.6608510  12.5177637  -6.1862603
  40.4488660  26.5788806  19.7101246  40.2105770  26.1037775  19.0182901
  41.3143043  26.4736387  19.7429916  40.5415089  26.4931517  19.6127815
 -16.5184664  60.2244435  37.8662608 -17.3351138  60.1423061  37.5704904
 -16.4551191  61.0725233  38.0609075 -16.6297444  60.3375890  37.8513227
   7.0327628  39.9382432  22.3377676   6.5951112  39.7828869  23.0763237
   6.9540664  40.8004334  22.2301831   6.9564875  40.0426571  22.4309751
  50.5362508  17.9336979  56.7365317  49.7479787  18.1071236  57.0677269
  50.7164918  18.6390745  56.2558068  50.4464321  18.0635151  56.7144431
  51.4055857   7.3237700  27.9273619  50.7845655   6.7321660  28.0869807
  52.0184789   7.1431829  28.5214071  51.4043852   7.2097015  28.0386936
  43.9466960  77.6082572  -5.8673139  43.1276503  77.4271570  -6.1071188
  44.3992912  77.5319892  -6.6092575  43.8925637  77.5702386  -6.0123384
  22.0325294  -3.6386106  49.1962735  21.5581840  -4.3407569  48.9886043
  22.5666588  -3.5425371  48.5131810  22.0413607  -3.7281400  49.0646896
  43.2422850   5.1565980  19.7777791  43.3916234   4.3105806  19.6258186
  43.4443077   5.2523205  20.6210843  43.2941883   5.0457640  19.8799050
  37.0915822  -5.9754485  25.7510912  37.2220650  -6.0965833  24.8970185
  37.3368852  -6.7338899  26.1056790  37.1470935  -6.1053800  25.6773070
  40.9608493 -42.5072060  44.0279800  41.1908555 -43.3480945  43.9941685
  40.1132060 -42.5179428  43.8217640  40.8696115 -42.6330086  43.9925230
  37.8097820 -13.4394363  18.2341336  37.5770143 -14.2344277  17.9603683
  37.6286621 -12.9264294  17.5521079  37.7486423 -13.4810912  18.0929436
  43.8125784   7.1644398  10.5855334  43.1401911   6.8263915  11.0268476
  44.2300892   6.4626061  10.2785255  43.7749279   7.0108278  10.6053732
   5.7195465  65.8773787  58.2288765   5.8410618  66.6280928  58.6564299
   6.2195157  65.9623656  57.5189839   5.8113525  66.0008290  58.1871691
  10.9067307  35.3390329  26.0101452  11.7357343  35.0685188  25.9834111
  10.4528902  34.6334380  25.7707623  10.9621500  35.1948415  25.9708343
   0.9947061  13.8850945  23.1282465   1.7335142  14.2934811  23.3485246
   0.7791623  13.4468714  23.8511856   1.0720030  13.8806870  23.2675791
  12.9467037  -1.2141612  49.3983268  12.7585503  -0.7057495  48.7147661
  12.4423414  -0.8963718  50.0353260  12.8444049  -1.0921143  49.3914487
   9.3349327  38.5983637  72.5475646   9.0894034  39.3385265  72.9387344
   9.4862341  38.0550070  73.2131553   9.3210133  38.6274360  72.7036699
   2.4143295   8.1996105  31.0356634   3.1470578   8.4626772  30.6419063
   2.6300618   8.1835031  31.8808496   2.5544367   8.2360915  31.1023488
  73.2946073  64.7985737  -6.6135520  73.7778263  64.7032362  -5.8934481
  73.8856793  64.9341914  -7.2407531  73.4533022  64.8045239  -6.5998283
   1.6401020  11.5742316 -12.5780409   2.4647519  11.2981829 -12.6479634
   1.3624252  11.2054968 -11.8377235   1.7209012  11.4789838 -12.4790097
  10.3579494  65.7483118  64.8658676  11.1628782  65.4273111  64.7649335
  10.3220075  66.3983240  64.2850647  10.4715446  65.7969136  64.7651610
  74.7277759  60.9429398  36.2545254  74.9446657  60.7612077  35.4292547
  75.4743246  60.8317466  36.6920647  74.8700956  60.8996687  36.1972495
  41.8352017  14.4731450  42.0336631  42.6194672  14.7511769  42.2958949
  41.3733162  14.4351883  42.7728252  41.8828239  14.5086091  42.1815896
  -4.8395057 -20.7546407  47.4174898  -4.7239884 -19.9179002  47.6358028
  -5.6630902 -20.9168561  47.6552590  -4.9441018 -20.6549995  47.4848625
  30.2562055   7.2795065  58.4254013  30.7103467   6.5653265  58.6371613
  30.0177984   7.6075313  59.1978657  30.2880739   7.2224634  58.5707915
  26.2471562  10.1228216  39.4691191  25.5058063   9.8333701  39.1116870
  25.9873450  10.4739611  40.2243268  26.0992641  10.1319342  39.5278787
 -33.0816022  24.5249197  42.3868030 -33.2677630  23.6847065  42.5300702
 -33.1285515  24.8836827  43.1806697 -33.1160374  24.4537995  42.5252370
  -1.8221484  53.5655834  19.3515939  -2.2549627  52.9128678  18.9671805
  -1.9140139  53.3992054  20.2030742  -1.8996544  53.4445864  19.4205893
  57.7924768   9.5254403  42.9363296  58.1785193   9.4542927  42.1571963
  58.4197316   9.2962888  43.4977391  57.9421617   9.4810799  42.9041673
  11.0175693  47.0787522  39.9325679  10.3720129  47.1829006  40.5101054
  10.8485433  47.6816473  39.3250425  10.8972387  47.1831971  39.9281381
  17.1483981  69.1369347  48.7313036  16.6821962  69.3171206  49.4463758
  17.8404440  69.6637800  48.7994655  17.1817599  69.2413778  48.8470034
  54.1565865  26.9690369  31.9677264  53.5603551  27.4415505  32.3947844
  53.9509444  26.1461667  32.1720191  54.0381332  26.9172820  32.0609899
  40.8877514  49.7335536  67.3067324  41.2375671  49.0480471  66.8958195
  40.7332527  49.4335250  68.1112525  40.9166037  49.5879697  67.3648763
  20.1573019  21.5937054  52.7960746  19.8472023  22.2302721  53.3057418
  19.4786449  21.0526161  52.7078326  20.0112422  21.6078094  52.8583278
  23.8384183  51.5213435  32.2061294  23.5086333  52.2264827  32.6000330
  24.0948760  51.0166627  32.8699564  23.8275863  51.5509553  32.3623780
  33.7242371 -27.6067573  67.9712407  33.6800850 -28.3517064  68.4231711
  34.5703859 -27.3967686  68.0040508  33.8427085 -27.6857820  68.0428469
  18.7031732  50.3657880  57.1102911  18.7949193  50.1600198  56.2674496
  18.5261992  51.2199429  57.0948287  18.6905833  50.4615681  56.9835019
  38.2010510  17.1845834  53.9004569  37.5824181  17.0657189  53.2968808
  38.6551310  16.4399659  53.8781929  38.1767432  17.0570293  53.8080074
   6.5354990   2.0307358  38.9264935   6.3856505   2.4486516  39.6775137
   6.5110446   2.6664971  38.3295436   6.5097508   2.1863856  38.9492528
  26.4651823  -4.6765315  25.6383923  25.8896525  -5.1697099  26.0704571
  27.0345689  -4.4380275  26.2548777  26.4642749  -4.7141521  25.7932847
  14.5472587  16.2254570  67.1287145  13.9380922  15.9959845  67.7095742
  14.1115281  16.2498263  66.3732779  14.3929059  16.1951590  67.1029259
  26.0741412  35.8624833  73.1238385  25.4509595  35.3757924  72.7551707
  26.4255703  35.3296727  73.7186074  26.0339977  35.7118819  73.1572383
  50.7395777  55.0224517  51.6535503  50.6534662  55.8000595  52.0396208
  50.9177047  54.4832139  52.3158440  50.7531703  55.0576639  51.8084153
  35.9521032  22.7099060  67.3480514  36.4483685  23.0117546  66.6970923
  35.6002478  21.9831188  67.0177219  35.9734355  22.6471338  67.2030949
  28.3938210  18.7339777  41.2867520  27.8029553  18.1549752  41.0096718
  29.0576841  18.6320601  40.7299413  28.4046042  18.6333918  41.1635691
 -15.1951866  23.2121388  65.6432474 -15.4705047  24.0324629  65.7546378
 -15.2789138  23.0824753  64.7845760 -15.2482250  23.3141636  65.5328586
  -8.2738882   6.6036103  48.4614971  -8.1104155   5.9726990  47.8815254
  -9.0326658   6.9389442  48.1914095  -8.3618270   6.5599474  48.3359258
  48.4392798  50.1318658  45.7657688  48.5837937  50.3062885  44.9232535
  49.1043461  50.5228024  46.1731937  48.5588715  50.2153810  45.7014970
  49.6914313   5.6955104  31.6321922  50.3389149   5.1145482  31.5659550
  49.0652698   5.2576802  32.0533408  49.6945810   5.5450137  31.6846200
  45.2075157 -23.8941105  75.2278966  45.8116478 -23.3134041  75.4706804
  45.6364717 -24.4188948  74.6785900  45.3601241 -23.8858497  75.1826168
  66.5079039  -2.7396327  45.2977278  66.8207802  -2.3977160  44.5585790
  66.0698798  -3.4444313  45.0284078  66.4894170  -2.7932378  45.1487561
  70.8485117  18.0375844  39.7273409  70.0425635  18.0158819  39.3940001
  70.8810107  17.3266167  40.2319281  70.7342573  17.9293539  39.7526375
 -25.9090558  33.2529536  43.1533626 -25.8142555  32.4520487  42.8206407
 -26.7097267  33.4875649  42.8983662 -26.0133274  33.1693004  43.0665445
  68.9652538  -4.2442461  11.7043717  68.1469839  -4.5144565  11.8406077
  69.0131294  -4.1642695  10.8369322  68.8514506  -4.2723475  11.5963579
  34.2734872  32.4288005  27.3423686  34.3472363  31.6676770  27.7623586
  35.0801693  32.7595594  27.3740218  34.4035450  32.3652268  27.4090856
   2.5634362 -21.7396783  58.3099935   2.3094915 -22.4387738  58.7659727
   1.9299335 -21.1580031  58.4565126   2.4323419 -21.7570237  58.3989949
 -13.2015471  36.9282031  40.7989898 -14.0263505  37.2004245  40.7169274
 -12.8278488  37.5493853  41.2843987 -13.2681846  37.0601772  40.8585724
  23.5469444  32.7872825  53.3101586  23.8146091  32.4996230  52.5312188
  22.8753352  32.2645811  53.5021583  23.4872735  32.6675755  53.2234555
   8.1203224 -25.2694278  37.5196399   8.6791153 -24.5994414  37.5167626
   7.3699614 -24.9095879  37.7815809   8.0920238 -25.1173012  37.5579090
  15.3589669  20.6845250  45.1803577  14.5141108  20.6038669  44.9782391
  15.7408304  20.0463083  44.7242885  15.2905733  20.5783324  45.0831298
   4.0422022  15.4082188  20.1729744   3.2473416  15.6878560  19.9468347
   4.5506249  15.6858700  19.5206281   3.9998894  15.4905417  20.0432039
  40.4016954   0.3579610  16.8148495  40.9352500   0.4125648  16.1267525
  39.9662739  -0.3856123  16.6782977  40.4161917   0.2561860  16.6930319
   5.2992326  -8.6844069  35.2189321   5.3448268  -8.4931292  34.3689477
   5.1486616  -7.9118479  35.5952571   5.2837254  -8.5420283  35.1489628
  14.8652555   2.8188753  22.4147350  15.0586851   3.5788439  22.7970597
  14.0164197   2.7131264  22.5862999  14.7684385   2.9155170  22.4965559
  25.7882828 -14.8227651  -9.0767192  26.1798544 -14.9074874  -8.3017139
  24.9922495 -15.1532258  -8.9415662  25.7285355 -14.8840962  -8.9422701
   4.4948041  60.7981688   7.6493422   3.8745695  60.9311344   8.2483153
   5.0826888  60.3080975   8.0681037   4.4900253  60.7454169   7.7996826
  -8.4040942  27.2751049  48.2218423  -8.9450889  26.7024026  48.5966442
  -7.8046630  26.7703731  47.8383483  -8.3954620  27.1159457  48.2205583
  -0.4520961 -22.0360135 -20.3657635  -0.0560720 -22.3094971 -19.6380882
  -1.2808559 -22.2846737 -20.2541174  -0.5160201 -22.1131449 -20.2417784
  12.0738758  33.7645467  17.8075277  11.8253375  34.2193812  17.1057486
  11.4524805  33.9377878  18.3948904  11.9453687  33.8573264  17.7906260
  11.2922788  -6.3096480  67.4569013  10.8404778  -6.2325853  66.7145559
  11.6176012  -7.1181258  67.4160549  11.2735953  -6.4176931  67.3412077
  11.7096840  50.4056355  35.8899414  11.3471115  49.8245788  35.3495213
  12.1860724  50.9091228  35.3601356  11.7264969  50.3941769  35.7318470
  12.7111797 -17.2155301  27.6552182  13.4343057 -17.5194708  28.0371191
  12.3889125 -16.6561237  28.2420299  12.7703948 -17.1777925  27.7983170
  -7.0045047  32.8268845  34.9165832  -7.1277466  32.0968374  35.3780831
  -7.1743396  33.4627311  35.4892915  -7.0477982  32.8129692  35.0693571
  16.2457830  12.8355194  78.8469827  16.0544064  12.7209466  78.0035447
  15.5075417  13.1567834  79.1830315  16.1084593  12.8660520  78.7720309
  57.6693909 -21.5264259   6.4894934  57.8154073 -21.7792109   5.6673508
  58.1055660 -22.1134927   6.9651440  57.7553926 -21.6504893   6.4383094
  17.6910140   9.8142693  32.2982852  18.3541228   9.5679864  31.7876278
  17.7130352  10.6854550  32.2571747  17.7922218   9.9065803  32.2167777
  60.9813449  44.5854692  73.2794782  60.9567616  45.1899033  73.9081233
  61.7379193  44.7417484  72.8741245  61.0894751  44.6978422  73.3124629
  33.4813527  24.1757315  23.4518658  33.6734872  23.3755214  23.1622324
  33.6580461  24.1329582  24.3051474  33.5358362  24.0512055  23.5351282
  40.0001676  33.6361687  46.0450255  39.1479695  33.4637107  45.9732191
  40.2945350  33.0019959  46.5668608  39.9177645  33.5170127  46.1115040
  18.9516681  23.3746308  54.4381798  18.1242437  23.6204681  54.3114031
  18.8788309  22.6464166  54.9130886  18.8186809  23.3033738  54.4896061
  75.2314056  -1.4030134  57.1763768  74.6153586  -1.8312631  56.7311490
  75.3068542  -0.6472931  56.7470356  75.1515481  -1.3546393  57.0471849
  26.4035800   9.9478678  45.9100954  26.8010391   9.1712333  45.9079809
  26.4958203  10.2277425  45.0889368  26.4759187   9.8744862  45.7884810
  39.4783831  16.6232113  47.3551055  39.9109179  16.9488169  46.6709753
  40.0950904  16.5387276  47.9663944  39.6333778  16.6588300  47.3443453
  22.3032393   2.8526001  91.9138515  22.9660597   3.1283807  92.4095871
  22.1904857   3.5020415  91.3423167  22.3844955   2.9892745  91.9026544
   4.4013048 -22.2332097  -8.0885964   3.7684672 -22.7801085  -8.3367050
   4.9811554 -22.7544976  -7.6972247   4.3934775 -22.3910029  -8.0674335
 -12.0004602  28.5255833  34.4228882 -11.7792095  27.6827495  34.3802403
 -12.7052843  28.5268784  34.9370486 -12.0718940  28.4012707  34.4925404
  57.1201873  16.2410257  39.6088319  57.9478505  16.4167404  39.8215231
  56.9414979  15.5167194  40.0611482  57.2160541  16.1599874  39.7070672
  23.7908421  35.3993761  52.8644657  23.2998452  35.6458229  52.1867301
  23.5239017  34.5845691  53.0256238  23.6788792  35.3154176  52.7881566
  21.7932868  17.1274933  57.7553234  22.1428082  17.8031817  58.1824293
  21.6822438  16.5265209  58.3779317  21.8285149  17.1385304  57.9103878
  15.1608871 -20.1496691  39.7997868  14.6492059 -20.8541680  39.7449855
  15.5780866 -20.1390593  39.0336461  15.1469302 -20.2521708  39.6785167
  40.2568799  37.2506715  30.7828125  40.6651015  36.4886573  30.6652155
  40.9069076  37.8078698  30.9505433  40.4132051  37.2204160  30.7902183
  -4.8396988 -13.4472478  59.8985191  -4.6573460 -14.0036382  59.2517451
  -4.5521824 -12.6807597  59.5969069  -4.7702894 -13.4162120  59.7584229
  38.4879522  44.8258936   5.0856867  37.7063780  45.0106020   5.4265153
  39.0461722  45.2251360   5.6243290  38.4549582  44.9121552   5.2156027
 -10.8375034  11.9451401  37.2492895 -10.4978701  11.2044678  37.5610478
 -11.3401652  12.2311980  37.9024675 -10.8615860  11.8779842  37.3918305
  26.1960058 -10.7132843  47.6299024  27.0102912 -10.9236131  47.8619382
  26.3070712 -10.0659841  47.0556146  26.3326992 -10.6487346  47.5793447
  44.1114619 -14.4095620  70.7784660  43.8518197 -13.8572738  70.1550053
  43.3770039 -14.8215795  71.0063971  43.9646128 -14.3888411  70.7200381
  19.1028423  16.7508929  28.0039252  18.4259791  16.2704883  28.2726390
  18.7702383  17.5546652  27.9371114  18.9537232  16.7986610  28.0337500
  27.5848034  33.0858374  41.7755430  28.3686318  33.4668912  41.7361675
  27.1015049  33.5528487  41.2192494  27.6291978  33.2111141  41.6875504
 -13.8137293  23.3771821  -5.1025295 -13.9701571  23.9287847  -5.7601042
 -14.1948976  23.7607874  -4.4179149 -13.8931433  23.5153316  -5.0985351
   4.0470807  33.3094849  15.1616231   4.6872850  33.0091389  14.6506728
   3.4737899  32.6521112  15.1799785   4.0569652  33.1680100  15.0888567
  21.4635261  33.2632807  29.2338858  21.4119245  33.3152937  30.1032370
  21.2235937  32.4420974  29.0629182  21.4204605  33.1496584  29.3370515
  24.5004474  11.3464169 -11.9318091  24.6822852  12.0672988 -12.3883218
  24.7385467  10.6994823 -12.4665276  24.5624808  11.3573404 -12.0782344
  24.0074478   6.0631700  12.3042930  24.2039253   5.9586399  13.1478625
  24.4798819   6.7575646  12.0681538  24.1062598   6.1503051  12.3940230
  45.2989354  34.0442034  23.3031984  44.6855421  33.6241569  23.7597607
  44.8723341  34.3239652  22.5954666  45.1453067  34.0234804  23.2660955
  23.2808670  18.1322543  24.6725820  24.0718192  17.9536365  24.9944979
  22.8979750  18.5880900  25.3103492  23.3411459  18.1732051  24.8143470
 -11.2405683   6.3166612  29.0753176 -11.5505181   6.1189331  28.2841323
 -11.8642000   6.0346148  29.6163101 -11.3784775   6.2457886  29.0383590
  73.9156515   2.4054487  -3.8517939  73.7754841   2.6934177  -3.0402728
  74.5446513   2.9312102  -4.1502458  73.9878621   2.5256535  -3.7760030
  15.9804415 -40.1469698  43.9014454  16.3377135 -40.4394343  43.1612017
  15.1265056 -40.2820159  43.7844178  15.9070740 -40.2101219  43.7748088
  55.0399417  12.0962594 -15.2106414  55.1285558  12.9369794 -14.9950562
  55.1227762  11.6792988 -14.4487872  55.0652682  12.1588574 -15.0662535
  56.9605852   9.7807522  19.9130297  56.9937092  10.2189785  20.6666875
  56.2760763  10.1318201  19.5015222  56.8643623   9.8973472  19.9635723
  22.4083486  -7.8062732  25.5862176  21.8270753  -7.3075823  25.1684040
  22.7486526  -7.2684969  26.1829833  22.3727524  -7.6531657  25.6126525
  63.2409292  25.5283535  13.3888263  63.3576664  24.8686416  13.9476574
  63.6905599  25.2814147  12.6831401  63.3245934  25.3944225  13.3671328
  25.2643449  51.2608944  53.6860174  24.7484184  50.8254116  54.2385698
  24.8680261  52.0334457  53.6009561  25.1295875  51.3106864  53.7550755
  74.4129031  -9.9414123 -27.4435825  74.8012376  -9.7199944 -28.1927888
  74.8833008  -9.5253965 -26.8379453  74.5397555  -9.8472502 -27.4647906
   8.1125087  -2.6982621  17.1595220   8.0301963  -3.5662990  17.1891208
   7.7849590  -2.4349633  17.9240640   8.0519636  -2.7875944  17.2768330
  40.3223715  35.1110147  69.6054215  39.8935775  35.8555037  69.7571165
  40.6754837  34.9163688  70.3790908  40.3111917  35.1922379  69.7421169
  17.9997322  29.1593240  25.5734222  18.7075839  29.1227684  25.0647482
  17.3385981  29.1720596  25.0043186  18.0066334  29.1558053  25.4142122
   1.1250367 -34.6840604  10.8227938   1.4827700 -34.0803077  11.3411076
   0.9530229 -34.2472585  10.0874333   1.1524713 -34.5303490  10.7907315
  72.9312779  18.2689101   7.3114546  72.7020995  18.9586838   7.7939782
  73.7929340  18.2095883   7.4346181  73.0247079  18.3620409   7.4009270
  33.6354682  29.4620943   1.6360011  34.3349221  29.0598649   1.3041649
  33.3994972  30.0169086   1.0054153  33.7039341  29.4846343   1.4938315
   9.4398525   4.2598426 -20.8495066   8.7769149   3.9753592 -20.3588718
   9.7191336   3.5394132 -21.2546277   9.3831785   4.1113963 -20.8368745
 -10.0935344  59.1406618  52.5654274 -10.3208613  59.9780658  52.4747831
  -9.4705416  59.0310356  51.9645933 -10.0350864  59.2481696  52.4632818
  46.2237215  -4.7512256   7.1410480  45.4779568  -4.3003254   7.1002605
  46.6255582  -4.5511806   6.3929512  46.1729162  -4.6550675   7.0245135
  -2.9615637 -28.5099835  10.9585573  -3.5322652 -28.8512663  11.5233275
  -2.1861058 -28.7033463  11.3084365  -2.9313170 -28.5889617  11.0936699
  40.4817567  29.4345137 -21.3725256  40.2479443  29.8661039 -22.0937754
  40.1954903  28.6231638 -21.5171022  40.4049303  29.3784154 -21.5004260
  27.0293060  31.9335774  -4.3177471  26.5847823  31.6552496  -3.6205586
  26.4148695  32.0225382  -4.9306854  26.8728758  31.9056040  -4.3053016
  31.8772919  -0.2010246  29.2478508  32.6830073  -0.0257615  28.9628155
  31.8307665  -1.0713517  29.2090479  31.9894399  -0.3036999  29.2000132
  25.5178772  58.5041787  11.2498674  25.7137798  58.4421043  10.4019827
  25.9855567  59.1898112  11.5187974  25.6159020  58.5962910  11.1643439
  -9.4582787  64.2375406  -2.7300360 -10.2627047  63.9066149  -2.7973152
  -9.3595082  64.6887158  -3.4701879  -9.5625186  64.2553039  -2.8493102
  42.4099765  -9.0847294 -11.0507024  42.3941330  -9.4804849 -11.8280480
  41.5696110  -8.9137817 -10.8903836  42.2834968  -9.1179381 -11.1418500
  19.3645010   5.4881898  24.3297636  18.9229764   4.9347449  23.8199654
  19.5380334   6.1601228  23.8010556  19.3249130   5.5056930  24.1763549
  52.1272928  40.6704863  30.8394704  51.6718941  39.9870154  30.5451594
  52.8754710  40.3155709  31.1140683  52.1705424  40.5170952  30.8365584
  -3.1740181   5.1105106  29.9017692  -3.7203680   4.7058141  30.4484520
  -2.7467477   5.6708151  30.4161994  -3.1916086   5.1334971  30.0585175
  35.3058022   5.6408076  18.2713973  35.1972041   4.9830045  18.8341061
  35.2737591   6.3508902  18.7772584  35.2850266   5.6485303  18.4292471
   8.9792255 -37.6530094  48.9361071   9.1890860 -36.8473909  48.6751914
   8.4857981 -37.5177490  49.6427708   8.9373368 -37.5140222  49.0019532
   4.5557465  11.0255524  17.2460699   4.8971031  10.3155738  17.6209640
   4.2839729  11.5043248  17.9228679   4.5660253  10.9913985  17.4014265
  14.5049757   0.7510064  14.6061947  13.8935203   0.2782743  14.2014896
  14.9581004   1.1051326  13.9501365  14.4815870   0.7334859  14.4494981
  32.7266410  54.7107538  31.7146741  31.9338890  54.4170456  31.9301254
  33.2425981  54.0182084  31.8384027  32.6857527  54.5650638  31.7647780
  44.4333809 -10.1454536  27.4030426  44.5990002 -10.9141493  27.7809535
  45.1653552  -9.6896756  27.5357810  44.5659739 -10.1916780  27.4784760
  -8.1470359  27.3167031  26.6315981  -8.6077950  27.9098628  27.0754474
  -7.9864392  27.7099583  25.8695623  -8.1913761  27.4624169  26.5845954
 -16.4961934  35.4885093  -1.7636658 -16.3049901  36.3224744  -1.5931281
 -16.5749255  35.4696022  -2.6323333 -16.4795791  35.6089102  -1.8667939
  53.8657531  -2.6834658   9.5120853  53.3274074  -2.2460354   8.9829558
  54.0562230  -2.1038366  10.1356964  53.8143647  -2.5332252   9.5260422
  34.0289139  19.1841337  28.5101599  34.2021987  19.7864456  29.1170638
  34.4939322  18.4927168  28.7686946  34.1232044  19.1709711  28.6380030
  18.3741253  24.3808515  16.5673455  18.2538315  23.6721858  16.0729147
  18.2656171  24.0843684  17.3806494  18.3403265  24.2323703  16.6144496
  -7.2919574  33.5653836  28.0472654  -6.5318478  33.1591390  27.9118467
  -7.3212225  34.1628515  27.4121944  -7.1839966  33.5936312  27.9334482
  36.8641158   1.8966955  48.1341978  36.2872237   2.0172844  47.4909301
  37.0040615   1.0356039  48.1254775  36.7995698   1.7873080  48.0378857
  -5.5829663  21.5069184  21.3336544  -4.7572825  21.2953569  21.1475699
  -5.8212927  22.0121337  20.6635070  -5.4962015  21.5502971  21.2071713
  13.6453632  14.3223461  43.0575429  14.0560540  14.5143213  43.8029409
  13.1030487  13.6770172  43.2824543  13.6259196  14.2553764  43.2008776
  65.4972998  38.1053396  14.5376481  66.1419463  37.5302266  14.6593672
  65.5043366  38.5794044  15.2700090  65.5935668  38.0904127  14.6638133
  17.0589187  21.5467423  -1.4715443  16.2161247  21.7296360  -1.3396817
  17.1023859  20.6834266  -1.3534929  16.9408417  21.4462300  -1.4346268
  33.0600720 -10.3963094  56.0941155  33.7277806 -10.4383758  55.5341733
  32.3752980 -10.2180695  55.5837679  33.0575511 -10.3761938  55.9360116
  26.6037508  38.9709685   1.5642926  27.2172644  39.4059034   2.0065281
  26.3055437  39.5600146   0.9939973  26.6503280  39.1222316   1.5453755
  16.7438405   7.8162802   9.2242549  16.2808100   8.5495784   9.3192083
  16.8476015   7.5318008  10.0424509  16.6907690   7.8825800   9.3591459
  24.7607775  62.1906171   9.1835865  23.9504462  61.8687022   9.2131432
  25.0994050  61.8282465   8.4658410  24.6910971  62.0895340   9.0819268
  29.5992368  37.4383552  13.3836190  30.2069530  36.9557518  12.9849781
  29.9210928  38.2482192  13.3427708  29.7365538  37.4866983  13.3186974
  42.8081741  35.9278450  23.9585057  42.1570324  35.5261157  24.3777522
  43.4826714  35.8521085  24.5066452  42.8116242  35.8573135  24.1014086
  39.8372930  46.0741923  48.5037926  40.4525223  46.5347588  48.0908629
  40.0537718  46.1510430  49.3454401  39.9601535  46.1535799  48.5671231
  38.4001670  47.5720587  16.8542982  37.7078708  47.2064228  17.2392344
  38.7824687  48.0172980  17.4998576  38.3543744  47.5838178  17.0065236
 -10.4216991 -31.6166641 -25.0044734 -10.6339084 -31.6721673 -25.8488821
  -9.6773218 -32.0683998 -24.9499131 -10.3430869 -31.6915937 -25.1211502
  11.3604428  12.0827323  59.0714323  11.3622322  12.9547699  59.0452280
  11.8137257  11.8982824  59.7936873  11.4276663  12.1843032  59.1742533
  61.2321214  35.6290953 -23.9323847  62.0388525  35.6311692 -24.2645294
  60.9661846  36.4537288 -24.0343493  61.3120079  35.7512170 -23.9965116
 -17.1629088 -14.0001671  67.6128769 -17.9032136 -14.0169296  67.1515665
 -16.5448562 -13.8999457  67.0053358 -17.1809680 -13.9878385  67.4549855
 -14.0571692 -18.7218646  30.8788965 -14.3695835 -18.0149700  30.4741287
 -14.7030880 -19.3034919  30.8038098 -14.1987347 -18.7033600  30.8080121
  42.0106150 -17.5100020  35.8858523  41.8039579 -17.2469619  35.0800966
  41.8190121 -18.3611097  35.8792534  41.9517838 -17.5968717  35.7658508
  -0.1504533   7.5171630  30.1821736   0.5746406   7.6623706  30.6450917
   0.1486705   7.3463851  29.3806131   0.0008447   7.5133857  30.1321492
  23.5407606  12.1839713  12.0446498  22.9596265  12.8312986  12.1109074
  23.0463179  11.4768063  11.9158723  23.3818757  12.1751321  12.0354143
   6.2391391  -5.0753796 -16.2982588   5.8903748  -5.8174574 -16.0002261
   5.7337171  -4.4562124 -15.9485158   6.1129582  -5.0935361 -16.2025689
 -27.2789859  18.6703309  25.1637164 -27.0601633  18.9420194  25.9633673
 -27.3646361  19.4115022  24.7115344 -27.2593136  18.8199511  25.2150448
  51.9097047  47.2831060  14.5026938  52.2039309  47.2361298  15.3226717
  51.2217207  47.8163205  14.5618529  51.8515386  47.3549334  14.6325605
  27.0950430  52.0038036  44.4195548  27.4642644  52.4611856  43.7748713
  27.1327302  52.5450692  45.1027463  27.1551518  52.1513244  44.4252432
  48.2037928  -6.0523519  13.7619869  48.1650302  -6.8825620  13.4966794
  49.0382377  -5.8339237  13.6311037  48.3213315  -6.1427247  13.7034614
  60.1130023   5.6157628  11.3131191  60.8720721   5.6163332  11.7431798
  59.6166805   6.1671041  11.7722781  60.1518156   5.6972916  11.4444752
  -8.0146190   1.7764472   4.1349581  -7.4730446   2.1488522   4.7086750
  -8.0541119   0.9459842   4.3993651  -7.9404512   1.7087826   4.2587663
  -3.5788291 -12.2834063  46.3861740  -3.0143527 -11.8682108  46.9059035
  -3.0961267 -12.5038560  45.6936858  -3.4241392 -12.2546383  46.3606540
  22.0345778  -7.3248203   9.3148449  21.4224471  -6.9648980   8.8080002
  22.5163933  -6.6436358   9.5697586  22.0153275  -7.1710273   9.2776295
  23.1033438  -8.6145716  30.1487968  23.7238495  -8.8071369  30.7310603
  23.4552491  -7.9682882  29.6801606  23.2469889  -8.5475481  30.1655819
 -25.9768156  54.0741315  38.4282897 -25.6437029  53.3617071  38.8059496
 -26.6976245  53.7796824  38.0347496 -26.0340863  53.9253955  38.4259439
  17.5660041   0.7813943  26.4866367  17.0699093   0.2493079  26.0050626
  17.0872013   0.9153005  27.2035443  17.4219916   0.7225749  26.5214003
  48.0406379  56.2685187  11.7137866  48.2224935  56.3688600  10.8664380
  48.7367996  56.6087757  12.1146901  48.1703392  56.3336041  11.6478374
 -22.7552713   0.1631528  22.1889245 -23.4323684   0.7133147  22.1879793
 -22.6939801  -0.0852719  23.0229917 -22.8462385   0.2077256  22.3119938
  13.1123879  51.5368233  19.1790151  13.5002264  51.6950773  18.4137200
  12.2619409  51.5517877  18.9849649  13.0440511  51.5624112  19.0373000
  15.9627355   6.6829066 -41.3296151  15.2836565   7.1343273 -41.0194368
  15.7503228   6.5400006 -42.1636404  15.8310438   6.7284806 -41.4069981
   7.0003111  19.8729816   7.4463595   6.9823708  20.7367254   7.3248511
   6.1567376  19.6529806   7.4798689   6.8730477  19.9680756   7.4333602
  42.7514774   0.9436766  47.0942182  42.1741322   1.5975802  47.1091212
  42.4919580   0.4562522  46.4187875  42.6278552   0.9682690  46.9966446
   2.8220457   8.4028011  -7.1970646   2.2879679   8.8778206  -6.6968078
   3.5336049   8.9023754  -7.2695111   2.8482633   8.5467687  -7.1338682
  34.9925277   8.1077128 -21.5257060  34.1973391   8.1845182 -21.8762991
  35.4836795   8.6393898 -22.0127677  34.9476152   8.1975982 -21.6494449
  -7.9801268  20.7127130  14.0157218  -7.4932150  20.3295646  14.6299316
  -7.6913370  21.5359348  14.0089469  -7.8655397  20.7777209  14.1054524
   4.2386025  13.3859230 -26.8405834   4.1096644  14.0869115 -27.3437033
   4.7140397  12.8560856 -27.3449357   4.2897875  13.4112055 -26.9894078
   5.8732833  26.4813002 -16.5523406   6.7388216  26.4308684 -16.6494986
   5.7207554  26.0182646 -15.8288264   5.9786096  26.4054505 -16.4598149
 -35.5513317  36.3214985  14.3458519 -34.8353469  36.6019192  13.9336996
 -35.3257994  35.5290298  14.6326762 -35.4122502  36.2458585  14.3273384
  11.0926166  -7.5598054   0.7117792  11.4081063  -8.3573277   0.8716666
  10.5719875  -7.4045104   1.3943979  11.0623133  -7.6546756   0.8362347
  28.9495891  51.2080645  35.7745956  29.0179813  50.6006584  35.1520846
  29.6654218  51.6947790  35.6658205  29.0654353  51.1902358  35.6665696
 -14.5856590  30.2004999  -7.6904495 -14.4326905  30.6492281  -8.4228313
 -14.6200585  30.8178968  -7.0750006 -14.5681439  30.3579886  -7.7077229
 -11.8819284  -1.0287169 -34.6843502 -12.4427642  -0.5167104 -35.1138290
 -11.5943545  -1.5780563 -35.2980822 -11.9222948  -1.0342318 -34.8384540
  18.7227095  20.9319626 -26.4556986  18.4078466  20.4321322 -27.0977037
  19.5005112  20.5769876 -26.2820417  18.7910951  20.8056902 -26.5248833
  -1.1754930  11.4277009 -61.7862246  -1.7069736  11.7999555 -61.2030484
  -0.6044195  10.9897255 -61.2930794  -1.1696443  11.4179926 -61.6272298
 -20.5154411  -1.9403290  15.0093713 -20.7318829  -2.7494000  14.7650425
 -19.6581295  -1.9010997  14.8524716 -20.4207714  -2.0540505  14.9501016
 -30.1900565  16.7982300   3.1014649 -30.5978283  17.3404747   2.5529830
 -29.3873676  17.1343898   3.1633251 -30.1317191  16.9279885   3.0295809
   2.9244357  -5.3788854 -27.3779692   2.6306268  -4.6980764 -27.8376594
   2.8929633  -6.0395090 -27.9469380   2.8763850  -5.3759036 -27.5299233
 -38.1781162  14.8314650  -0.3161095 -38.1223142  15.6679879  -0.5574703
 -37.4537726  14.7046611   0.1533441 -38.0628726  14.9363051  -0.2824155
  -8.1437630  39.3377464  22.0651764  -8.1392477  38.4993246  22.3063570
  -8.8307435  39.6692951  22.4885826  -8.2445772  39.2628708  22.1633496
  15.4761127   9.3872540  16.5460010  15.8000700   8.6513542  16.8845902
  14.6312367   9.3576731  16.7615215  15.3991623   9.2741767  16.6278544
  29.9029200  27.9935120  15.4995218  29.1445963  28.4102644  15.6108868
  30.0971056  27.7037441  16.2991880  29.8195851  28.0122702  15.6340999
  -1.9137359   4.6302403  36.4744869  -1.1359271   4.3647746  36.7672002
  -1.7495984   4.8823095  35.6555488  -1.7745910   4.6282614  36.3967527
  22.7289829  29.5340871   0.8785215  23.0720553  28.7403043   0.9940630
  21.9600964  29.3720523   0.4994465  22.6660814  29.3928931   0.8395922
   4.1624147  57.0534791 -28.4804972   3.4526513  56.5725053 -28.3191289
   4.8021081  56.6160140 -28.0798027   4.1520639  56.9178068 -28.3974690
  45.7163792 -29.6868243   0.4586667  46.0118772 -29.4919782   1.2560722
  45.8816209 -28.9654069  -0.0032767  45.7844399 -29.5514733   0.5082214
  41.0931390 -36.0308663  19.5624949  40.7747994 -35.9620652  18.7531335
  41.4005568 -36.8467599  19.5933397  41.0915256 -36.1412273  19.4474920
  15.7190596 -12.5571188  -9.3808933  15.2128441 -12.7190939  -8.6890484
  15.1814956 -12.6684368 -10.0589588  15.5648719 -12.5974898  -9.3788578
  34.8498214   6.9059599   1.5718064  34.9106001   7.7539938   1.7674693
  33.9907352   6.7542510   1.5815486  34.7318949   7.0088215   1.6021490
  20.0333158 -14.7015415   8.8025455  19.8050891 -15.5434930   8.8155755
  19.9228554 -14.4462457   9.6294446  19.9832847 -14.7882026   8.9266204
  -0.2927071   2.7137749   3.3643327  -0.6584332   1.9492531   3.5714326
   0.5607524   2.5339962   3.3436926  -0.2206588   2.5742823   3.3918767
  18.2891042  55.5829554  12.1951486  18.6003175  54.7971399  11.9788621
  17.7361612  55.7701582  11.5468056  18.2533958  55.4945279  12.0674250
  40.2638610 -13.6898956  75.0508105  39.8342720 -14.4395487  74.9299265
  41.0658560 -13.8629148  74.7541490  40.3188731 -13.8261933  74.9891304
  57.2048093   6.2626920   3.4159328  56.9562333   6.0567803   2.6054083
  57.4956984   7.0816402   3.3394677  57.2110598   6.3532501   3.2849062
  12.7514516  40.0445778 -15.8246953  13.1747264  40.5542035 -16.3923744
  12.7120561  39.2735397 -16.2310053  12.8081585  40.0059618 -15.9685736
  -7.5240773  -0.6595531   5.3989848  -7.3566190  -1.0134867   4.6193514
  -7.9774917  -1.2795978   5.8126265  -7.5663189  -0.8034298   5.3449203
  48.7772755   0.1841337  54.7500717  49.0775244  -0.3498208  55.3712662
  47.9385866  -0.0431250  54.6720080  48.6977368   0.0716868  54.8303033
  48.2928395   2.5282293  37.1548935  47.5831918   2.9505484  36.8734928
  48.8684167   3.1677854  37.2991789  48.2730345   2.6850901  37.1346388
  72.5464910  29.8122575  19.1412297  72.6107266  28.9509460  19.0181208
  72.7325802  29.9129386  19.9876184  72.5834691  29.6998968  19.2480731
  13.6819565   7.6495592  10.6466484  14.1092167   8.3965173  10.5029757
  13.6490898   7.5961438  11.5168243  13.7402165   7.7520098  10.7539679
 -50.2059061  26.4572346  37.2984938 -50.2424793  25.8367099  37.9106630
 -51.0321206  26.5264905  37.0269929 -50.3333577  26.3758008  37.3488175
  17.2061421  -5.6538115  38.7597541  16.6606096  -5.4235086  38.1190558
  17.5830564  -6.3800810  38.4570864  17.1812337  -5.7270760  38.6203995
  21.9357638  45.6592825 -17.7269508  21.5621024  45.4239390 -16.9745346
  21.6893117  46.4901424 -17.8273134  21.8441602  45.7472525 -17.6306290
  -2.9824543  39.6308293   9.5290711  -2.5665727  40.3788637   9.3598773
  -2.8715143  39.1649628   8.7998247  -2.9046319  39.6725113   9.3963530
   9.2532114  28.2853879  34.2010310   9.0106791  29.1077181  34.0395046
   9.3142061  27.9297270  33.4067234   9.2263946  28.3543246  34.0598346
  46.7447913   5.7397064 -27.5517514  47.0543167   5.9314215 -28.3445811
  46.4267199   6.5002849 -27.2662860  46.7435289   5.8803798 -27.6266995
  13.0076546   7.1509919  41.6503306  12.5552766   7.6033491  42.2435141
  12.5974426   6.3815140  41.6225918  12.8802322   7.1041466  41.7338584
  29.4166573  38.0077418 -23.0820149  29.6521924  37.3349982 -23.5850843
  29.1655177  37.6289516 -22.3373092  29.4143522  37.8524086 -23.0463202
   3.3549480   3.4508976  49.0478769   4.2109686   3.5174910  49.2025813
   3.0611934   2.9784025  49.7198859   3.4380063   3.3909376  49.1699995
  23.2822373  11.1312884 -15.5777728  23.6985821  10.4937033 -15.1520008
  23.6403966  11.1147271 -16.3731263  23.3966475  11.0346575 -15.6323676
  34.4282619  14.9813469  -0.4798745  35.1044522  15.4275462  -0.8036220
  34.1028518  14.5682966  -1.1760334  34.4800794  14.9862437  -0.6305357
  42.7760374  35.8180499  -5.2994472  42.7009471  36.5986889  -4.9172121
  42.9178677  35.2752844  -4.6312936  42.7858963  35.8531887  -5.1442831
  57.8244291  36.0212284  37.9254274  58.1235320  36.7307065  38.3356930
  57.1996000  35.7248405  38.4572943  57.7763126  36.0822504  38.0645998
  26.2329754  60.8831816  -9.7351483  26.0711824  61.5326012  -9.1754906
  26.0112860  60.1673645  -9.2883830  26.1763271  60.8733733  -9.5864789
   5.7653622  41.2118665 -11.1467576   6.0746108  40.4033437 -11.2553653
   6.1354567  41.6619839 -11.7960372   5.8657152  41.1589226 -11.2587132
  20.5830116  11.8341670  26.7362996  21.3309582  11.8210116  26.2873650
  20.8232088  11.6009896  27.5419504  20.7289808  11.7977786  26.7889939
  10.7307114  14.1059011  52.5323510  10.6868041  14.8622354  52.0997194
  10.9231287  13.5248446  51.9106691  10.7526494  14.1317933  52.3766072
  -0.8714332  38.0293217  -8.6399940  -0.4263274  37.7381843  -9.3315570
  -1.2372116  37.3079432  -8.3129487  -0.8597149  37.8797523  -8.6938408
  46.4968703  10.1975597  26.5697218  45.7827327  10.6842824  26.4503566
  46.2869968   9.4327714  26.2061403  46.3603748  10.1564837  26.4983806
   5.9010114 -27.3551100 -22.2461507   5.2118088 -27.6424165 -21.7949364
   6.5819040 -27.6926672 -21.8176883   5.8997838 -27.4474153 -22.1162043
  41.4303544  22.8530989  13.7273063  41.9986783  22.4096814  13.2358508
  40.9559342  22.2273388  14.1074238  41.4442259  22.6951593  13.7108594
   5.6230437  -8.4581592  21.8255799   6.4833269  -8.5246551  21.6966201
   5.5322549  -8.6011694  22.6814100   5.7367139  -8.4891076  21.9329537
  32.6804549  -2.6884011 -24.3065256  32.2531163  -3.2969857 -23.8502953
  32.4995377  -1.9484590 -23.8812092  32.5906030  -2.6689969 -24.1763030
   6.2029984   7.6481574  -8.8352974   6.9793667   7.9361233  -9.1100109
   5.8848270   8.3200542  -8.3787220   6.2706835   7.7899489  -8.8084327
  14.3234355  -8.4432314  -1.9970238  14.0884480  -7.6030842  -2.0055723
  14.7118476  -8.5554725  -2.7701198  14.3460995  -8.3357047  -2.1124888
  40.4861922   4.8923626  21.2459056  41.0394335   4.9162726  20.5717454
  39.8208686   5.3917730  20.9830878  40.4696353   4.9696678  21.1074947
  -7.7536225 -33.1022785  67.2065587  -8.1530616 -33.6482327  66.6556304
  -7.7168054 -32.3526212  66.7618140  -7.8071892 -33.0721873  67.0594773
  24.0109837  50.1320459 -15.1308503  23.7401762  49.3030058 -15.1531069
  24.6846843  50.1129747 -14.5768617  24.0704993  50.0067624 -15.0523025
   4.2639405  -6.1918269  20.7152944   4.5379373  -6.9434772  21.0632701
   3.4591038  -6.3772395  20.4342258   4.1855245  -6.3302504  20.7251780
  48.2328418  11.3919390  47.6919754  48.4931862  11.8871369  48.3614075
  48.1403209  11.9625432  47.0385305  48.2576328  11.5493799  47.6943370
 -16.3864849  38.0367246 -11.9515048 -17.0854164  37.6098584 -12.2522034
 -16.2565235  38.6619281 -12.5459542 -16.4705335  38.0660231 -12.0837366
  66.1282212  23.0559450  24.1326118  65.5642446  22.4949344  24.4908533
  65.9121710  23.0523898  23.2873608  66.0129951  22.9725470  24.0606705
  48.8443005  28.0428867  39.1972223  49.2962961  28.2617439  38.4838212
  49.3685560  28.2800644  39.8529985  48.9885129  28.1102525  39.1887099
 -27.4052289  25.2975898  -4.3015442 -28.0808092  24.9316587  -3.8882342
 -27.5782470  26.1517384  -4.2611155 -27.5305844  25.3697096  -4.2345177
   8.4469871  16.6659599  39.7050163   8.7857543  17.1812740  39.0879039
   7.9933260  17.2173011  40.2063685   8.4300149  16.8235269  39.6879161
 -20.7624356   0.1415991  35.0709779 -20.5075226  -0.1643925  35.8472047
 -20.0843023   0.6231385  34.8075495 -20.6246054   0.1675311  35.1467288
  11.6574518  22.7301409   7.4240177  12.4275755  22.5250720   7.7789766
  11.8747930  23.1617301   6.6976341  11.8033207  22.7636026   7.3691506
  34.7966688  21.3274132 -10.6799580  35.2708503  21.8458030 -11.1972232
  34.3133072  21.8866900 -10.2165892  34.7953127  21.4866068 -10.6879196
  48.0142317  -2.9834972  -1.4984217  48.2974813  -2.8465398  -0.6846946
  47.1487565  -2.8960006  -1.4318147  47.9282250  -2.9503407  -1.3683782
  14.4654579   6.6817508  29.7301614  14.9211902   6.9619855  30.4193030
  14.0162323   6.0027417  30.0436618  14.4664191   6.6228436  29.8782723
 -20.1455919  48.8911764  24.6158308 -20.9618056  48.7087383  24.8641270
 -19.6745758  48.2485563  24.9712500 -20.1965847  48.7692983  24.7050120
  17.3095777  35.4515422 -10.4353127  17.2297117  34.8901456 -11.0983322
  17.3519825  36.2290325 -10.8288228  17.3040439  35.4834637 -10.5913839
  68.0662964   0.7624339  -8.9614924  68.1399887   1.1579244  -8.1873501
  68.4445847  -0.0130640  -8.8324944  68.1330632   0.7062990  -8.8280800
  28.5877444 -11.3162552   7.7123124  28.7019711 -11.2093671   8.5706053
  29.1521588 -11.9492109   7.5075129  28.6879937 -11.3939662   7.8088469
  28.4947387   3.0974154  29.9167747  29.2949817   2.9672708  29.5945745
  28.5757695   3.8350707  30.3755102  28.6249210   3.1871572  29.9369438
  -6.0157172  31.0218904  12.1954237  -5.9361220  30.4864986  12.8796457
  -6.8788366  31.0941412  12.0908091  -6.1314599  30.9534749  12.2810437
 -18.3454194  40.0548454  27.9323827 -18.9343915  40.6298975  27.6433039
 -18.6357720  39.8463197  28.7282168 -18.4753138  40.1089889  28.0072409
  19.6116388  22.0594165   1.2406081  19.6356321  22.3447718   0.4165109
  20.2503836  21.4659275   1.2708626  19.7095389  22.0138988   1.1233412
  19.0336915  18.8695654 -32.1812173  19.6568005  18.4380006 -31.7492144
  18.8347455  18.3356524 -32.8418964  19.0963491  18.7269445 -32.2149975
  24.6734573  -1.7242451   7.9308303  24.0503243  -1.1181056   8.0045847
  25.1543226  -1.4434280   7.2592278  24.6524415  -1.5932234   7.8425158
  34.9982469  12.1987791 -13.0529165  35.4958407  12.8106693 -13.4259182
  35.3466529  11.4505927 -13.3357061  35.1232185  12.1786453 -13.1497904
  -0.9364356  46.8347532 -27.1235028  -0.9086853  47.0987263 -26.2924266
  -1.7606238  46.9932747 -27.3616714  -1.0540859  46.8971644 -27.0359181
 -23.1623938  37.4003974  -7.0174899 -22.3964919  37.2726805  -6.6197183
 -23.1975856  38.2658623  -7.1217565 -23.0544528  37.5093779  -6.9741332
  29.9092156   6.1004937  12.9140258  29.2658808   6.6217502  13.1888921
  30.5715868   6.2929806  13.4482100  29.9120277   6.2059283  13.0335393
   2.6073931  16.3053907  -6.0285302   2.6954818  16.2681105  -6.8957039
   2.8280958  15.5034437  -5.7652607   2.6530079  16.1814195  -6.1177393
  21.2913178  20.5045859  -4.3967325  22.0495805  20.7211893  -4.0235566
  21.1241424  19.7107263  -4.0758294  21.3786336  20.4193133  -4.2942027
  11.0628164  28.9220375   5.4762707  11.5037447  29.0885592   6.2104317
  11.4703827  29.4082773   4.8774385  11.1881565  29.0184638   5.4962616
   5.2263074  14.3349039   7.9190723   5.5572875  14.1824619   7.1263850
   5.7354574  13.8636496   8.4480573   5.3504119  14.2427711   7.8801180
   2.8890893  27.4922403  38.4105710   2.0258398  27.4748485  38.2855218
   2.9785482  27.2841488  39.2530878   2.7747845  27.4589318  38.5165558
  57.6399618   9.7846528 -14.9048810  57.3052944   9.3788886 -14.2088259
  58.2122860  10.3455009 -14.5598680  57.6750686   9.8075619 -14.7510938
  -9.8080531  12.3745735 -13.1643967  -9.9321740  11.5116395 -13.1315566
  -9.6501296  12.5271135 -14.0087492  -9.8030598  12.2696336 -13.2842738
  11.1164315   8.0063789  24.7321939  11.6821927   8.3980429  24.1958609
  10.9079194   8.6323285  25.3030261  11.1692046   8.1567014  24.7372901
  51.5748504  11.4037330  10.3486311  50.7464055  11.4081072  10.6221260
  51.5465540  11.8531226   9.6013776  51.4482921  11.4707632  10.2786472
 -14.4404215  -7.4500087  -1.5535023 -14.3160501  -8.2821649  -1.3228786
 -15.0133804  -7.1572882  -0.9642890 -14.5066871  -7.5296945  -1.4323955
  15.2052458  -1.8643184  12.1898352  15.5835667  -2.6306805  12.3650552
  15.8689595  -1.2984544  12.2103680  15.3591758  -1.8939361  12.2187519
  -1.2332013  11.2389180 -33.5614368  -1.2128512  11.6871862 -32.8132516
  -0.5567253  10.6924346 -33.4916111  -1.1302657  11.2244096 -33.4405997
  11.6520960  32.7167748   4.6562721  12.1851334  32.6608460   3.9678808
  11.4897109  33.5715104   4.7210616  11.7068490  32.8347750   4.5641533
  24.7171304   0.5098600   5.1017918  24.7290305   0.0602570   4.3542257
  23.8727318   0.6980418   5.2145667  24.5941532   0.4712427   5.0080200
  28.1323010  41.0066202   5.3652679  28.0782445  41.8773459   5.3726248
  27.3778999  40.7512444   5.7213601  28.0128751  41.0975201   5.4189568
  -2.7358470  33.2000296   7.9076371  -3.2627592  33.7956730   8.2664017
  -3.2878071  32.6216842   7.5583577  -2.8952187  33.2025849   7.9090383
  53.7422607  42.2979926 -20.1373448  53.2667209  42.3932958 -20.8625474
  54.1571180  43.0617927 -20.0622296  53.7332966  42.4248998 -20.2333761
  36.7614838  28.5860206  -8.2360948  36.5298257  29.3172814  -8.6517048
  36.9247145  28.0248512  -8.8838480  36.7513757  28.6111466  -8.3931755
 -17.5566291 -19.4073536  31.4105104 -17.9718247 -18.6731795  31.6335362
 -18.0147278 -20.0320746  31.8117694 -17.6856327 -19.3911851  31.5027301
  19.1874832  21.5431410  -5.8738356  19.5451601  22.3204663  -6.0440478
  19.6586897  21.2428042  -5.2038343  19.3099264  21.6136021  -5.8000064
  12.5955020  20.8282969   4.0511557  12.0087261  20.7718500   4.6943100
  12.3024014  21.4897064   3.5635401  12.4655261  20.9176624   4.0741320
  14.7475106  -3.7081618  -1.7893339  14.1074767  -4.2946398  -1.8761652
  15.1877622  -3.9870584  -1.0896663  14.7179986  -3.8359955  -1.6988054
   9.6725165  24.5542894 -23.9952921   9.2900230  25.2799217 -24.2924385
  10.5010860  24.7962892 -23.8686113   9.7384111  24.6972286 -24.0204734
  -1.3507344  35.5509430   6.8123720  -1.8844987  34.8854538   6.9950172
  -0.6108487  35.3392122   7.2233206  -1.3202860  35.4213595   6.9000581
  -5.4009705  13.8448018 -31.9870370  -6.1903343  13.5248745 -32.1759571
  -5.2753552  13.6045743 -31.1577897  -5.4990198  13.7620554 -31.8924475
 -10.6649697  36.0648603  20.3728957 -11.0553708  36.8349505  20.4981459
 -11.2973775  35.5665008  20.0369824 -10.8160596  36.1050005  20.3417764
   6.5667897 -37.1245192  25.7966350   7.0754244 -37.6257434  25.2954320
   7.1090856 -36.5044147  26.0839066   6.7220338 -37.1069581  25.7650329
  28.8255075   7.0474292  41.4742747  29.2625910   7.6781557  41.0592065
  28.3769392   6.6551870  40.8370368  28.8238109   7.0826582  41.3188274
  22.2630644   9.7388448  47.0255574  21.7706959   9.2171823  47.5221266
  22.9875288   9.2713481  46.8923750  22.2973497   9.5927256  47.0792371
  40.4654664  56.8774003  18.5324625  40.3062202  56.4176988  19.2566550
  39.8061396  56.6616686  18.0034185  40.3445463  56.7776249  18.5612900
  17.1115449  16.3595491   3.1403112  16.4575776  16.3435169   2.5630683
  17.2475932  17.2111013   3.2725584  17.0350376  16.4829726   3.0745761
  36.4100052  21.5462869  32.7263468  36.0372747  21.4742252  31.9408414
  36.0075161  20.9350418  33.2012379  36.2954893  21.4453484  32.6804627
  54.7832664  28.1296548  18.0393588  55.1240754  28.8594944  17.7042126
  53.9292125  28.3026897  18.0816709  54.7074496  28.2630279  17.9961012
 -19.4213416  54.3569933  18.6571313 -20.2931818  54.3728484  18.6851081
 -19.2017427  55.2007442  18.6255030 -19.5176911  54.4839749  18.6565919
  39.0134995  46.4576897 -18.4391898  38.4204255  45.8191562 -18.4801494
  38.8927882  46.7991648 -17.6454876  38.9080587  46.4138080 -18.3279942
  61.5066997  33.2783049  46.4821959  61.6090513  33.5296014  45.6530315
  60.6686109  33.4549821  46.6481231  61.3980161  33.3415254  46.3842221
  15.3212770  -7.3404270  41.9897477  15.9979414  -7.5229804  41.4701911
  15.1262737  -8.1103539  42.3507543  15.3924282  -7.4811280  41.9663266
  36.3327279  16.3637491  39.3335010  36.9008579  16.6652334  39.9229712
  36.8302680  15.8987116  38.7882179  36.4901494  16.3395889  39.3400283
 -10.3301398 -13.8042090 -24.5233677 -10.4149894 -13.0943440 -24.0233359
 -10.1977445 -13.4781573 -25.3216792 -10.3231163 -13.6511827 -24.5674297
  30.0685234  -3.1514245  23.8702383  30.7292565  -3.4326192  23.3747579
  30.1999419  -3.5520354  24.6340312  30.1855406  -3.2521412  23.9098736
  22.0728727 -25.2925616  43.2762120  22.4860660 -24.6254811  42.8948794
  22.7140852 -25.7308893  43.6735215  22.2286302 -25.2587701  43.2785721
  15.5601069   6.7754572  38.1269745  15.8760770   7.3591068  37.5607100
  14.6959751   6.8808603  38.0694766  15.4791321   6.8772445  38.0348319
   5.9504343  48.4375061  38.8000502   6.2595112  48.5651789  39.6058484
   5.1945005  48.8730545  38.7988983   5.8844243  48.5207055  38.9189130
   0.9777605 -14.3448750  30.6227986   1.2768419 -13.5259616  30.5900750
   1.7035575 -14.8265479  30.6712695   1.1291562 -14.2950576  30.6251248
  24.1905840  -2.0294580 -10.5294105  24.5266556  -2.0242488 -11.3344994
  23.7114943  -2.7583637 -10.5118263  24.1694573  -2.1363629 -10.6457411
   1.8243388  -1.5439398  25.2951061   1.6742284  -1.6258531  24.4395966
   1.2752162  -2.1180787  25.6556175   1.7210477  -1.6408522  25.2219847
 -16.8787021   8.6634493  55.4745663 -16.7702048   9.0132929  54.6827473
 -16.1872844   8.9508662  55.9223079 -16.7605382   8.7575858  55.4237390
  12.1309083 -18.8294629  32.2391479  11.3612144 -18.6157603  31.8883744
  12.5891680 -18.0883732  32.1952886  12.0849031 -18.6884204  32.1808525
  22.9390495   7.1264362  42.9804066  23.2155465   6.3259197  43.1898399
  22.9950344   7.1415884  42.1099035  22.9881639   7.0104217  42.8827530
  -7.1347499 -26.7515555  29.4219210  -7.2447392 -26.2879279  28.6911055
  -7.6654985 -27.4353374  29.3128904  -7.2294001 -26.7840768  29.2978584
  51.6042766 -43.9229570  48.7988832  52.2308916 -43.3733175  48.5412216
  51.2035818 -43.4903296  49.4418582  51.6376497 -43.7778559  48.8558020
  27.8605015  -3.1114720  27.7457261  28.6057438  -2.6670412  27.6549808
  28.0131324  -3.6303078  28.4303083  27.9931359  -3.1224632  27.8334481
  56.2919558  24.8874856  35.2180883  56.5238653  25.6903973  34.9677080
  56.6125168  24.3756643  34.5884700  56.3735671  24.9304857  35.0880943
  30.0546219   7.9174163  20.1097512  30.7779636   8.3704108  20.2906165
  30.1677827   7.1686704  20.5430107  30.1781905   7.8737277  20.2004701
  17.1058826 -21.0440659 -11.8614177  16.7780931 -20.3320432 -11.4783809
  16.6796131 -21.6997023 -11.4746688  16.9944925 -21.0357365 -11.7477045
  -2.2076131  32.4654316  33.2694438  -1.9778224  33.3068722  33.2517359
  -2.8471565  32.4398766  33.8622935  -2.2681420  32.5859547  33.3544041
  72.7258721  11.8550578  36.6168584  73.5322617  12.0677022  36.3606207
  72.5864710  12.3720667  37.3056316  72.8244000  11.9628426  36.6807528
  37.5215423 -14.3053167  48.5877118  37.2799101 -13.6604567  49.1233506
  37.4809470 -15.0164693  49.0914514  37.4798515 -14.3151095  48.7412494
  33.6997268  14.6259687  44.5733578  32.8567790  14.6687347  44.7941507
  33.6837354  14.2970060  43.7654795  33.5728438  14.5836915  44.4866332
  -1.6920078  17.5182346  48.5058380  -1.0307696  17.2115220  48.0264310
  -1.4183746  18.3098074  48.7501266  -1.5539080  17.5898584  48.4711061
  63.0839651 -13.4845918   6.3278089  62.4201885 -14.0298540   6.4802204
  62.7201523 -12.8442032   5.8601741  62.9321690 -13.4705397   6.2812439
   1.4070884 -14.0261173  44.4146463   0.7184228 -14.2355247  44.9076247
   1.0499573 -13.7759913  43.6589784   1.2526027 -14.0201023  44.3758417
  41.2950072  -0.6117503  51.9744305  40.8012691   0.1003964  52.0754714
  42.0399710  -0.2997541  51.6445413  41.3321184  -0.4604633  51.9406249
  17.4794061  14.6977629  33.4949794  16.9967903  15.3116415  33.1059107
  17.2194839  14.7293395  34.3271951  17.3697180  14.7931099  33.5604414
   2.7300571  28.8800362  52.6302209   2.6436827  28.1003534  52.2484176
   2.0965943  29.3575520  52.2671187   2.6237223  28.8353999  52.5201830
  -8.5168181  35.4544682  36.6878472  -9.0254326  34.8640283  37.0800608
  -9.0124101  35.7497199  36.0333591  -8.6651601  35.4108628  36.6491038
   9.0893436  -6.8526873  31.7079661   8.9089446  -6.4786350  30.9407108
   9.6129200  -6.2751344  32.0996801   9.1400380  -6.7121156  31.6524909
  75.5473273 -21.4224878  34.0329402  76.0147272 -21.7472548  33.3717266
  76.1530074 -21.1193834  34.5828665  75.7058434 -21.4256878  34.0165008
  23.1314645  20.4179695  31.7460821  23.0456733  20.3341333  30.8819346
  22.6681405  21.1340367  31.9297070  23.0503489  20.5113630  31.6455548
  19.2461000  44.6498284  23.7060817  19.1235996  45.4513500  23.3840625
  19.1419254  44.7560053  24.5657408  19.2126154  44.7839142  23.7855022
  -9.3713827  22.4380348  -0.0637194  -9.5768890  23.2211099  -0.3888349
  -9.3289742  21.9274498  -0.7698666  -9.3954756  22.4782872  -0.2160581
  28.2956659  -1.1179093  65.6592744  28.8016745  -1.7313151  65.3003479
  27.4955481  -1.3209849  65.3769424  28.2522199  -1.2385204  65.5645473
  34.7512076 -24.0189112   7.2220145  34.2794037 -23.6372060   7.8487854
  35.4703045 -24.2837122   7.6390512  34.7877379 -24.0016420   7.3762064
  11.9015662 -15.2496411  12.3810028  12.1645439 -15.2272156  13.2125552
  11.9310890 -14.4134541  12.1339011  11.9447745 -15.1228064  12.4673382
 -20.5571959  27.1470437  45.7726464 -20.6491864  27.7993443  45.2006489
 -20.9223487  26.4660393  45.3676328 -20.6247254  27.1428035  45.6283218
  -3.8703686  38.4827782  11.9701508  -3.4672029  38.6976764  11.2269041
  -3.5269043  39.0307869  12.5556918  -3.7600760  38.5954752  11.9468545
  31.7091416  41.8969236  70.9586068  32.2306786  41.5602272  71.5716110
  31.3677691  41.1938498  70.5709321  31.7357556  41.7433281  70.9918926
 -18.3028297  -6.3176842  35.9352128 -18.8819738  -6.2155825  35.2907697
 -18.7407440  -6.7773177  36.5336338 -18.4530702  -6.3704990  35.9284144
  27.9646085  43.8950164 -17.9213950  27.7595402  44.6121028 -18.3740248
  28.8223781  43.8069660 -18.0541278  28.0610259  43.9879380 -18.0078651
  23.6686221 -23.4078775  42.1004901  22.9960206 -23.0191490  41.7034549
  24.1844220 -22.7423916  42.3290034  23.6454592 -23.2521483  42.0755959
 -31.2395602  46.7849331  10.6402821 -31.9071886  46.3715064  11.0204007
 -31.1963034  46.4203114   9.8488787 -31.3317927  46.6699993  10.5795268
  10.3626218  -9.6011026  52.9702647  10.7711444  -9.5960248  53.7411233
  10.7902055  -8.9976237  52.5075284  10.4861319  -9.5112062  53.0157807
  37.7978950  14.6672365  37.5458899  38.1946160  15.0623037  36.8768054
  37.2303132  14.1292458  37.1591646  37.7726554  14.6461238  37.3899250
  90.2492704 -10.5546319  21.8463624  89.7859357 -10.0424206  21.3133520
  91.0474934 -10.2031112  21.8260452  90.2987403 -10.4270409  21.7646246
  -9.6521696 -26.2776642  11.8216319  -9.6132038 -25.4098410  11.9022790
  -8.8178777 -26.5265584  11.8777405  -9.5231715 -26.1862357  11.8418335
  -9.9529570 -26.3047191   8.9681548  -9.7784561 -26.3452499   9.8219968
  -9.1833883 -26.1015163   8.6109263  -9.8134985 -26.2806891   9.0415149
  16.0448677 -15.5714604  10.7986035  15.8267454 -15.2432391  11.5769562
  16.3423619 -14.8785427  10.3598532  16.0565926 -15.4206171  10.8487697
  -9.4924249  37.7518705  75.8648656  -8.7848126  38.1539708  76.1790944
 -10.1545316  38.1813612  76.2367419  -9.4857028  37.8747136  75.9662175
  83.6274855 -21.2061947  42.8409484  83.4207819 -21.0413525  43.6723570
  83.3924134 -20.4774898  42.4227740  83.5622261 -21.0741993  42.9019916
   3.4255515 -18.9149122  51.5621034   3.3924252 -19.2006305  52.3857582
   4.2212868 -18.5628357  51.4989607   3.5382045 -18.9051097  51.6744467
  34.7740659 -10.9714559  17.2386601  35.5835631 -11.1444167  16.9630907
  34.3746664 -10.6684500  16.5246524  34.8346458 -10.9522456  17.0924791
  57.5338668 -31.3459037  37.3925140  57.9933256 -31.0315360  38.0642357
  58.1429832 -31.5303530  36.7957768  57.6917173 -31.3267121  37.4035907
 -14.4835768  28.3190717  49.0182786 -15.2701422  28.5774097  49.2934436
 -14.4103571  27.5101217  49.3366781 -14.5889526  28.2377350  49.1059603
  76.1606486  -2.9068053  27.9687543  76.3848875  -2.8341960  27.1287636
  76.2878107  -2.1037785  28.2851675  76.2125578  -2.7774558  27.8914111
 -10.7637602  30.2492043  73.0063270 -10.6992086  29.4445135  73.3371522
 -10.0628694  30.6590675  73.3255507 -10.6506886  30.1908802  73.1023526
  28.7786964  -8.9835692   3.1875894  28.8166054  -8.4918599   3.9072591
  29.6073557  -9.2248448   3.0601165  28.9067064  -8.9465750   3.2750691
  71.8002149  49.2008373  15.7247271  72.5874072  49.4473363  15.4406391
  71.2676513  49.8185337  15.4149423  71.8378288  49.3284968  15.6369999
  43.1169129 -13.6649176  -7.5056065  43.8782615 -14.0810916  -7.5966397
  43.1553894 -13.0331675  -8.1060655  43.2350636 -13.6330725  -7.6077542
  -7.7417042  41.0481927  59.3736515  -7.2251307  40.6162308  59.9283588
  -7.7621893  40.5336396  58.6694107  -7.6684217  40.9083729  59.3515623
  27.9413169  20.8315871  54.5234010  28.1458699  21.3009317  53.8169924
  28.7020688  20.7495531  54.9425269  28.0839124  20.8888009  54.4809634
  20.3712807  17.7648853  37.4498247  20.5588982  17.5504092  38.2744090
  19.5228865  17.9662833  37.4782104  20.2736703  17.7629534  37.5758260
  29.6147403 -28.7147526  34.7113462  29.8627876 -27.8829053  34.7987649
  29.3682024 -28.9410470  35.5170443  29.6149632 -28.6253000  34.8432779
  -8.5910986  14.1659276  41.3163641  -8.7351888  14.2082732  40.4569548
  -9.3883025  14.2438405  41.6621025  -8.7301471  14.1836923  41.2404843
 -14.9149718  40.7629761  36.0440288 -14.0636233  40.8886140  36.1874178
 -15.0253630  41.0271382  35.2199101 -14.8055171  40.8205576  35.9434710
   1.9963787  -6.2508263  -4.4024458   2.1452829  -7.0346947  -4.0495756
   1.8135101  -6.4324658  -5.2359359   1.9913615  -6.3934517  -4.4734432
  21.1091949  17.5251779  51.2542195  21.4451452  17.0183635  50.6285870
  20.6549349  16.9675746  51.7480474  21.0917181  17.3679415  51.2347493
  16.8935479 -16.7970473  20.8436834  17.3306330 -16.2973368  20.2776572
  16.4247409 -17.3252785  20.3315005  16.8888619 -16.8012604  20.6844097
  31.8731568  22.1392817  26.6379062  32.2376494  22.9247443  26.5314482
  32.5303876  21.5859110  26.4863541  32.0240864  22.1735665  26.5997928
  -3.0509616 -16.8526104  59.8543619  -2.6008474 -16.4666705  59.2143719
  -2.6255283 -17.6038166  59.9802004  -2.9216252 -16.9065677  59.7784111
  18.3870761   5.3697142  41.7923341  18.6135277   4.5957474  42.1252524
  17.5921151   5.2265437  41.4626697  18.3030956   5.2342341  41.7928148
 -16.5056869  54.7944920 -13.7411418 -17.2824717  55.1898087 -13.7028073
 -16.6269218  54.0595225 -13.2869816 -16.6383429  54.7443183 -13.6683902
  14.4084088  21.8457941  57.3912689  14.1282176  22.6399546  57.1633621
  14.0685435  21.7286643  58.1861977  14.3168137  21.9458055  57.4750298
  33.6454506  -7.6802393  10.6887995  33.0719117  -7.7710678  10.0376905
  33.3854062  -6.9510248  11.0909968  33.5223131  -7.5859365  10.6520301
  49.2396469  35.1351272 -24.9323039  48.9472896  35.8079106 -24.4600442
  48.7190676  34.4764261 -24.6951340  49.1195594  35.1372074 -24.8275065
  37.2250739  40.9369159  46.3857529  36.4229457  40.8957795  46.0451099
  37.6894470  40.3958900  45.8829724  37.1751805  40.8509185  46.2611619
   4.3485644  26.1047466  61.1360046   4.8003938  25.9741839  60.4011963
   4.7941151  26.7358498  61.5413846   4.4811259  26.1786868  61.0873413
   8.9816511 -22.5110979  27.5109524   9.5382694 -22.1778148  28.0942515
   9.4976459 -22.7549715  26.8510929   9.1400981 -22.4978903  27.4996428
  -4.3160816  45.4861109  44.3558675  -4.5240001  46.2438314  43.9766987
  -3.8215669  45.7248629  45.0337999  -4.2737454  45.6333104  44.4000011
  82.4229929  15.2538235   4.3075146  82.4454367  15.9908723   4.7737708
  81.5702172  15.1086926   4.1941560  82.3003357  15.3412620   4.3596448
  -3.2218756 -53.4689139  23.9116819  -2.5397589 -53.0400821  23.5770782
  -2.8942648 -53.8515480  24.6240034  -3.0727181 -53.4620895  23.9674786
 -13.5754646  22.3523373  60.5440895 -13.9425330  22.3758621  59.7529847
 -12.7469479  22.1342204  60.3793942 -13.5072992  22.3235920  60.4028981
  25.7158458 -14.5533786   8.4081304  25.3572876 -15.3057551   8.1502446
  25.2745862 -13.9507095   7.9573317  25.5976962 -14.5754935   8.3034431
  21.6641861  -9.5398800  37.6298047  21.0240140  -9.1210312  37.2104183
  21.4474663  -9.4563592  38.4707543  21.5376055  -9.4656697  37.6920783
  13.9393328 -10.8195561  -5.7688780  13.1227748 -10.8303541  -5.4618666
  13.9916361 -10.0549739  -6.1857928  13.8264367 -10.7082066  -5.7851130
  -0.8961687  -3.3315345  -4.0787858  -0.4067022  -3.1210780  -3.3879384
  -0.3247564  -3.6858494  -4.6347430  -0.7394550  -3.3527853  -4.0588597
  -1.3650664  10.3391371  34.3522027  -1.4546748   9.6324708  34.8559215
  -0.5139334  10.5229675  34.4062273  -1.2525735  10.2619034  34.4345929
  10.3109963  44.4239939  14.1929665   9.9584905  44.4295261  14.9909944
  10.0313911  45.1712499  13.8400232  10.2176205  44.5351962  14.2587147
  19.4623392   3.0481278 -10.4902589  19.5876451   2.1922170 -10.3768801
  20.1913186   3.4061528 -10.1715949  19.5885347   2.9745798 -10.4264373
  37.2858264 -12.1223240  24.4241359  36.9903174 -11.3036251  24.4836837
  37.5584726 -12.1823866  23.5975791  37.2824491 -12.0102578  24.3108329
  31.3290102 -18.7293320  28.7479058  31.6867153 -19.3000934  28.1934528
  31.9924419 -18.2025137  28.9563773  31.4798532 -18.7358233  28.6967972
  -6.9229550  19.8165225  16.6799489  -6.0912682  19.5948026  16.8223458
  -7.2131988  20.0429424  17.4709180  -6.8429727  19.8172168  16.8178263
  11.9963017  23.0781544  43.4458985  12.6303402  23.3847345  42.9309778
  11.2677586  23.3937162  43.0842561  11.9823414  23.1700576  43.3164121
  36.2497075   4.3041466  27.0399651  35.5354788   3.8050041  26.9966782
  36.3031295   4.5129288  27.8853618  36.1520927   4.2612544  27.1584533
  15.1059683  48.1008896  12.6616952  15.8533183  48.1283818  13.1109742
  14.5053955  47.9354680  13.2725042  15.1276503  48.0805146  12.8182921
 -16.6583875   2.5300583  31.9301560 -15.9373474   2.1177504  32.1970696
 -16.7312518   2.2948615  31.0931896 -16.5626386   2.4344085  31.8459475
  21.1117705  12.5255378  39.3589062  20.2452534  12.4441842  39.2983319
  21.2170505  13.1937911  39.9098084  20.9993201  12.6122350  39.4313377
  29.3738702  25.8037711  22.4860339  29.5301959  26.5805503  22.8511583
  29.9579181  25.2778328  22.8647376  29.4832386  25.8408255  22.5959126
   5.1084933 -10.5906363   3.9240690   4.5550944 -11.2502584   4.0647379
   5.6970697 -10.6770272   4.5622336   5.1136898 -10.7008378   4.0391188
  19.5872155  12.9591075 -22.6867631  18.9930175  12.6209116 -22.1448297
  19.1447042  13.0754258 -23.4295910  19.4340722  12.9263316 -22.7164394
  48.0604491  19.1885859   8.7780447  48.3415821  20.0144110   8.7888488
  47.2357085  19.2562577   8.5017064  47.9801471  19.3205738   8.7388198
  24.6255057 -27.8485497  30.8533480  24.9715185 -28.6469978  30.9157603
  25.3218719 -27.3286508  30.7764140  24.7794865 -27.8896972  30.8512028
  -6.1351025   3.4353138  20.1087380  -5.6546480   3.9562155  20.6176234
  -6.8104375   3.2184124  20.6166907  -6.1638904   3.4802209  20.2589459
  -1.8192763  46.0572881 -10.9243955  -1.8690370  46.6458842 -10.2823534
  -0.9907952  45.7860109 -10.8902290  -1.7042432  46.1041627 -10.8245056
   1.9680047  19.3261574  46.4533079   1.3511753  19.9365783  46.3636014
   2.2694520  19.4563743  47.2615855   1.9214163  19.4355649  46.5594557
  -1.6498483  -1.4753180  43.0822104  -2.0819530  -0.7174336  43.0882307
  -2.1915451  -2.0169817  42.6647125  -1.7936988  -1.4433777  43.0214267
  21.0718513   7.4280599  28.5501683  20.6516127   7.9746780  29.0847221
  20.4283090   6.9808800  28.1667326  20.9147089   7.4427490  28.5724916
  47.4266474  -8.5834168   8.6528202  48.1727444  -8.1354471   8.7144805
  46.8265693  -8.0244494   8.9504799  47.4482174  -8.4346714   8.7058992
   1.0628747  22.5750091  11.4398191   1.5166823  22.8480877  12.1330913
   0.2513963  22.4864945  11.7477272   1.0100394  22.6022730  11.5877140
  32.1919905 -22.8872492  35.1381695  32.2843082 -22.1512926  35.5975004
  32.7651460 -23.4321972  35.5064955  32.2902946 -22.8590333  35.2604315
  81.6102964 -25.9018784  27.7347781  81.8283791 -26.3763774  28.4336558
  81.7234410 -26.4538147  27.0686668  81.6592255 -26.0535041  27.7396184
 -10.3249218  16.3577385  19.6775642 -10.0683107  15.6197353  19.2894384
  -9.5915628  16.8273211  19.7306318 -10.1786828  16.3180872  19.6280692
   2.3503572   8.3562709  17.0765145   2.7924985   8.4030212  17.8271576
   2.6479424   9.0378258  16.6203725   2.4596301   8.4638566  17.1200184
  12.5298772 -13.0177749  51.8583726  13.1460079 -12.6489428  52.3538373
  12.9844002 -13.5001359  51.2910312  12.6880348 -13.0345455  51.8477549
  39.2921947  29.6145034  40.2513088  39.8177797  30.3015295  40.1377523
  38.8725513  29.7977895  40.9939023  39.3078445  29.7430664  40.3442306
  17.8436545  35.7350228  53.6427744  18.0195244  36.5860492  53.5655506
  17.8746887  35.5964298  54.5035696  17.8742185  35.8402639  53.7585241
 -26.9995824  -4.4526123  22.9702371 -27.0976900  -4.2166654  23.8044095
 -27.8157733  -4.4613829  22.6621865 -27.1346432  -4.4190537  23.0479562
  45.6007402 -30.0721550  22.0081309  46.2418069 -29.8580985  21.4564490
  45.2019081 -29.3120391  22.1640035  45.6365233 -29.9282497  21.9496617
  18.3018337  31.7207431  26.8858127  18.0356061  30.9842354  26.5013408
  18.4680919  32.2536311  26.2153441  18.2870662  31.6906643  26.7299762
   9.2999617  23.0228552  32.1701231   9.6351003  22.8075604  31.3939339
   9.0924217  23.8651600  32.0774444   9.3188106  23.1154775  32.0417734
  19.8277278   3.3375482  18.2004761  19.6522431   4.1890042  18.1272133
  19.4479073   2.9885419  17.4968636  19.7456977   3.4117704  18.0857156
  13.7284121  -5.7171471  16.5842333  14.4040974  -5.2997356  16.9452826
  13.6883812  -6.4662904  17.0295662  13.8223114  -5.7661508  16.7033526
 -26.6638062  57.2612002  15.1694695 -27.0927975  57.6828957  15.8013546
 -25.8276047  57.3285889  15.4089805 -26.6036528  57.3334480  15.2981927
   0.5885043   7.0428288  27.3362050   0.6889139   7.8979574  27.1954480
   1.3749255   6.7869414  27.6140590   0.7195075   7.1313491  27.3564570
  55.2660993   0.3659822   1.3810009  55.5655308   0.3498487   2.2002810
  54.4012741   0.4247714   1.4797975  55.1825790   0.3722834   1.5166197
  37.6019939  -6.4166734 -12.4772475  38.0246847  -5.7993825 -12.0284447
  37.3964897  -6.0207492 -13.2270152  37.6340768  -6.2670006 -12.5217062
  26.5337323   1.6032384  23.2417472  25.8783434   2.0623304  23.5893672
  26.4872190   1.7911499  22.3910620  26.4300469   1.6988142  23.1674341
  21.2405008   5.2717169   4.1068914  21.0781588   5.9672159   3.6058267
  20.8008421   4.6287084   3.7139793  21.1515729   5.2794708   3.9748326
  26.0590470  -2.8920023  23.5853446  26.1234238  -3.3653329  24.3153811
  25.2035457  -2.7350171  23.5174275  25.9421816  -2.9387330  23.6831533
  13.0158012  18.6979824  18.4934271  12.2839596  18.7223039  18.0191320
  13.2404450  19.5377647  18.5671858  12.9408776  18.8256283  18.4342596
  57.3210236  -2.5690465  21.8063254  57.5141234  -1.7254574  21.6958296
  56.6464787  -2.6972833  21.2681023  57.2499042  -2.4633743  21.7104962
  15.3634475  66.4739635  10.3805290  15.6107663  66.7925248  11.1541514
  14.6381243  66.9224518  10.1963988  15.2928364  66.5872725  10.4676092
  10.1130999   1.2907339  60.7894562  10.8192156   0.8892853  61.1078571
  10.1386482   1.1055763  59.9372804  10.2211817   1.2040801  60.7106066
 -20.8640349  -2.1536297  33.2170319 -21.4598727  -2.2292748  32.5842644
 -20.9568342  -1.3298002  33.4887539 -20.9657608  -2.0431074  33.1636981
  14.8947927   5.2491669 -31.3733258  14.2821460   5.7212917 -30.9697150
  14.6949846   4.4274581 -31.1588244  14.7747764   5.1975262 -31.2820179
  31.5188964 -19.5298165  49.7088587  32.3301868 -19.2537584  49.5453373
  31.0326980 -18.8136213  49.6001615  31.5669192 -19.3832403  49.6686464
  -4.7493179 -11.5283823 -42.9780386  -4.8334478 -10.9930485 -43.6617633
  -5.2728109 -11.1757327 -42.3757656  -4.8390763 -11.3972089 -42.9900707
  27.5724948  18.2171267  16.2867614  28.4019302  17.9871166  16.1443824
  27.2724507  18.4065648  15.4897505  27.6506968  18.2111334  16.1479941
 -15.3325119   4.2933942  27.5314709 -14.6237511   4.7676775  27.7154631
 -15.8605514   4.4419755  28.2098789 -15.3058156   4.3854042  27.6588652
  38.5983218 -10.0846662  52.1027618  37.8581345  -9.6901671  52.3428299
  38.8993840 -10.4262938  52.8469336  38.5334540 -10.0768560  52.2481543
  19.5554865   2.3584691  20.9123096  19.8093795   2.9444171  20.3178831
  20.1683955   2.4147345  21.5306269  19.6835310   2.4533372  20.9158387
  -8.6149029  19.7376457  52.5778147  -8.3838678  20.0471492  53.3600997
  -7.8713219  19.7567207  52.1218948  -8.4709320  19.7861835  52.6260255
  27.0275288  -8.8118820  59.9978214  27.1720758  -7.9784233  60.2113450
  27.6687975  -8.9936027  59.4348902  27.1436100  -8.7156069  59.9462067
  -6.9130283  15.6823273  26.4045738  -7.7425299  15.8303744  26.1784131
  -6.9345550  14.8818358  26.7508243  -7.0387427  15.5859478  26.4223135
  42.4037055 -12.4598918  21.7016221  42.7827054 -11.7880087  21.2941031
  41.8004005 -12.7309999  21.1327082  42.3705710 -12.4006891  21.5573828
  28.0270892  24.0116178  20.8288373  28.4210561  23.2503258  20.9912074
  28.4009389  24.5607747  21.3943482  28.1405116  23.9802811  20.9363603
 -20.5962570  27.1900197  33.1787256 -20.2420041  27.0390807  32.3958706
 -21.4544621  27.1645775  33.0238831 -20.6707011  27.1639646  33.0402083
  23.1876277  18.6950339  34.1501636  22.8610890  19.1093235  33.4552707
  23.6936469  19.2966079  34.5285719  23.2141407  18.8450979  34.1034123
  52.5317562 -11.7621057  57.1456453  51.9640039 -11.6157795  57.7916990
  53.0695220 -11.0763015  57.1858963  52.5273266 -11.6391829  57.2470266
   9.9402107  -3.2232981  24.9169551   9.4411863  -3.6897849  25.4596376
   9.4057549  -3.0418509  24.2516932   9.7875444  -3.2654043  24.8988476
   6.5200035  19.6428315  13.7408140   6.7611089  18.8049238  13.7105089
   7.0850075  19.9986840  14.3023111   6.6390825  19.5716220  13.8192820
  -7.3617856  10.6868945  26.7199494  -6.5724640  10.3157850  26.7396658
  -7.6412182  10.5316708  25.9081844  -7.2864645  10.6091443  26.6029475
  40.1354962 -20.1142453 -21.1956144  39.7384900 -19.4206042 -20.8457749
  39.5332618 -20.7433078 -21.1433316  39.9878878 -20.1047057 -21.1362127
  51.9352646 -21.1183172  30.6748850  51.5536630 -20.4469832  31.0808781
  52.4759991 -21.4422867  31.2780346  51.9587718 -21.0670043  30.8239561
  44.7283695  17.5151008 -18.4181975  44.3415391  17.5637959 -17.6377293
  44.1384230  17.8587556 -18.9613403  44.5840794  17.5730590 -18.3831397
  60.1502923  20.4889316  56.1017450  60.4793381  20.2142252  56.8616165
  60.5883431  21.2265752  55.9432109  60.2636083  20.5573170  56.1905749
  63.8986286 -16.7267925   4.5191067  64.7190255 -16.9803993   4.3649246
  63.9171409 -15.8681117   4.3659267  64.0225528 -16.6374106   4.4737030
  21.3082402  24.1989690  75.6251426  20.9334499  24.9263213  75.3224374
  21.7615022  24.4747113  76.3177170  21.3198321  24.3471468  75.6827343
  41.0171287  -4.9685530   6.5615484  41.1938202  -4.5518302   7.3073780
  41.8021202  -5.2212588   6.2768248  41.1591891  -4.9443243   6.6296633
 -14.1088755 -27.0657475  26.9731222 -13.3481893 -27.3073347  26.6207991
 -14.6869961 -27.6030009  26.6012689 -14.0819068 -27.1807983  26.8661465
  22.8096581  22.9903554  10.2476862  23.6363303  22.9260641  10.5190147
  22.5104671  22.1729041  10.3059755  22.8875779  22.8601038  10.2963775
  12.4151004 -42.4129474  35.0949532  12.9519555 -41.7877658  35.3814392
  11.8993250 -41.9964202  34.5278374  12.4182143 -42.2590655  35.0534984
 -16.0487624 -26.0532163  34.0903625 -15.3936769 -26.2898202  34.6157397
 -15.6653980 -25.9643778  33.3117234 -15.8953619 -26.0750443  34.0529505
  40.2499876  16.6352629   3.5332010  40.8583121  16.9423831   2.9884459
  40.3076094  15.7699326   3.4382125  40.3483616  16.5528037   3.4386977
  46.3323168   7.7447219  66.2697945  46.8549756   7.0907867  66.0241604
  45.6650881   7.6954294  65.7098699  46.3109609   7.6408407  66.1507969
  48.9035259  42.8675135  12.0651787  48.9877027  43.3706913  12.7728975
  48.9725634  43.4314790  11.4031241  48.9261588  43.0251526  12.0719243
  16.7890044  -4.2635900  41.1627635  17.6060455  -3.9577087  41.1582950
  16.8117533  -4.9178502  40.5860786  16.9130587  -4.3150527  41.0769152
  64.6858071  28.3884721   5.6485256  64.3477916  28.2322746   6.4375043
  64.0903220  28.8999557   5.2678399  64.5479098  28.4409552   5.7088389
  19.1840943   6.0217780  27.1116676  19.2252695   5.8174089  26.2645092
  18.3297520   5.9988652  27.2869208  19.0639728   5.9882038  27.0124134
  29.8445598  28.4297003  64.2999432  29.2249412  28.8967011  64.6988448
  30.5399679  28.5268711  64.8177318  29.8557555  28.5130401  64.4353572
  19.4859826  -0.4462041 -20.9572138  19.5443403  -0.5803130 -21.8173003
  19.5850158   0.4168699 -20.8769943  19.5092325  -0.3385209 -21.0724163
   6.8432507 -34.3385018 -11.0978480   6.1980020 -34.3255047 -10.5108005
   7.5641812 -34.3893951 -10.6091675   6.8544305 -34.3440998 -10.9389408
  13.9407141  10.0275789   2.2660101  13.4352984  10.6115147   2.6718592
  13.8507674   9.3070867   2.7496837  13.8527668  10.0074067   2.3974110
  29.8735111 -23.7558871  34.1913602  30.6460919 -23.4901821  34.4973980
  30.0587713 -24.0438718  33.3889369  30.0150039 -23.7591783  34.1180338
   7.5351796  -3.9607531  10.9437025   8.3265729  -3.7883872  11.2679342
   7.3793751  -3.2858557  10.4132517   7.6290692  -3.8355948  10.9132397
  34.4238225  -4.0824194 -41.9760108  34.4502512  -4.0620126 -42.8478047
  33.5928778  -4.2821702 -41.8005964  34.3049789  -4.1089122 -42.0788804
  13.2112044  31.6730627   9.8927804  13.7515701  32.3438116   9.7540706
  12.7692040  31.9099686  10.6066787  13.2257350  31.8071420   9.9777476
 -16.4606830  28.4367521  34.3703528 -15.9923158  28.9524784  33.8451880
 -17.0011014  28.9906925  34.7731400 -16.4713264  28.5947639  34.3522751
  13.9885329  21.7313297 -32.0699036  14.5726000  22.0396112 -32.6399630
  14.4809897  21.3740336 -31.4446314  14.1475576  21.7240892 -32.0617475
  41.8303037   5.8365716  28.2678908  41.8624087   5.2031669  28.8669795
  42.6004995   6.2376593  28.3519541  41.9488201   5.8022536  28.3688064
  41.6179979 -33.0862684 -11.0496342  41.6671222 -33.5644347 -11.7777025
  42.3362900 -33.3104638 -10.6081227  41.7313611 -33.1900217 -11.0919646
  23.2313572  30.1862959  13.3809247  22.6926154  29.6501885  12.9525724
  24.0187596  29.9793834  13.0673580  23.2680895  30.0765366  13.2713279
   6.5511799 -11.9507471  -1.2969689   6.3793740 -11.2070508  -1.7195065
   6.2926198 -11.7869438  -0.4799899   6.4876060 -11.8166907  -1.2387018
  32.9416901 -11.5848686  10.3985841  33.0597984 -11.2435548   9.6044211
  32.2347612 -12.0871077  10.3029449  32.8547092 -11.6086406  10.2671420
 -25.9625227 -59.5793300   8.1862394 -25.7652005 -59.5223290   7.3383277
 -25.4140962 -59.0149560   8.5628692 -25.8523603 -59.4875401   8.1166214
  25.4475085  41.9397421 -10.3033114  24.6281361  41.8559953 -10.5909827
  25.4496480  41.4892922  -9.5561636  25.3267864  41.8608302 -10.2354373
  60.8990867   4.8047177   7.7045692  60.1987034   4.9678141   7.2106033
  61.5624482   4.8440503   7.1392870  60.8936178   4.8346206   7.5480964
  15.5898403  -9.7529159  15.7216034  15.7945464  -9.3501327  16.4679281
  15.3343621  -9.1016096  15.2003832  15.5823402  -9.5972051  15.7548560
  -2.8825845   4.3093256 -20.3721783  -2.8191948   3.4677327 -20.5931823
  -3.0405924   4.2848491 -19.5145222  -2.8965616   4.1813893 -20.2781317
  35.0661643  10.7337089  10.5050761  35.4184990   9.9378690  10.4447551
  34.2548681  10.6222059  10.2042356  34.9983662  10.5996757  10.4517251
 -16.9731146 -37.6756564  22.0189223 -17.6961928 -37.2039501  22.1445832
 -17.0896062 -38.0226505  21.2269853 -17.0971364 -37.6572339  21.9204996
   8.4701739   9.4112649 -24.8662266   8.3525482  10.0202210 -24.2526500
   8.5314970   8.6699243 -24.4103833   8.4618568   9.3917090 -24.7082513
   9.2981251  25.9938638  -8.7184091  10.0761735  25.7591272  -9.0357086
   9.2895573  25.6462725  -7.9182551   9.4117933  25.9078420  -8.6470815
  26.0625941 -14.2223165  -1.8584649  26.2404453 -14.4909291  -1.0476901
  25.1934351 -14.2797006  -1.9075480  25.9604737 -14.2704729  -1.7459473
  74.4709144  27.7655857   0.7243536  75.2357178  27.5576677   0.3596822
  74.1274490  26.9919934   0.9358387  74.5331547  27.6205964   0.7017249
  20.1720857  -1.7397558  11.4165802  19.3878941  -1.5606176  11.7543561
  20.4432432  -0.9700558  11.1080755  20.0963000  -1.5995928  11.4209042
  -2.0778822 -44.5622836  15.5445060  -1.4097555 -44.0506966  15.3142346
  -2.7697523 -44.0337905  15.4883790  -2.0813896 -44.4086423  15.5021991
  59.3762008   0.7281509  43.3012083  59.2346898   0.3400105  44.0696230
  59.6018111   0.0685292  42.7766716  59.3886240   0.5733748  43.3372341
   5.4511108 -17.8713826  18.8115724   5.3018966 -18.7005632  18.5850019
   4.9881032 -17.4135684  18.2309092   5.3606730 -17.9262410  18.6923273
  11.6965556 -11.2714242  -9.9419107  11.5315631 -12.0683588 -10.2562548
  12.2575719 -10.9352589 -10.5193129  11.7550565 -11.3394893 -10.0736400
  -6.1954694  44.5453678  24.1980063  -5.9123530  44.8889467  24.9482984
  -5.4633041  44.4208880  23.7402091  -6.0454914  44.5777333  24.2412139
  13.6969452  17.5767652  21.0335038  13.4286738  18.2363581  20.5294133
  13.7112051  16.8951817  20.4890958  13.6594224  17.5735167  20.8786190
  39.2647541  15.2115973   9.0213322  38.7124944  15.8704408   8.8727590
  39.2716598  15.1418582   9.8909461  39.1841941  15.2986202   9.1278448
  65.6757710 -19.5584101   5.8765785  66.4275782 -19.9065102   6.1499864
  65.1165970 -19.7473605   6.5190439  65.7042269 -19.6377435   6.0118719
  37.4886804  32.6160769   4.2886968  36.7588070  33.0646411   4.4536653
  37.4121707  31.9075387   4.7919457  37.3695610  32.5776734   4.3874063
  36.5708232 -12.0902130  -7.4024604  36.4734126 -12.9024679  -7.7055985
  37.2923776 -11.8070012  -7.8028224  36.6630221 -12.1683636  -7.5063818
  46.4122342  19.5560484 -17.6403387  45.8031331  19.0616516 -18.0220547
  46.3276967  19.3677169 -16.7926806  46.3097695  19.4551954 -17.5715094
 -19.7238688   0.1870557   8.0439327 -20.5543822   0.3077222   7.8055491
 -19.6635072  -0.6771735   8.1469081 -19.8376361   0.0772162   8.0239302
  41.2395110 -20.4362538 -13.9285326  41.0610140 -21.2374181 -14.2241915
  41.8603933 -20.5717891 -13.3308078  41.3048605 -20.5746236 -13.8839112
  34.1681035  31.9293557   6.5133243  34.2523753  32.1838027   5.6830867
  34.5583630  31.1492413   6.5294069  34.2382016  31.8517038   6.3930568
  53.7015742  -9.9448597  43.1314169  53.3717552 -10.6624340  42.7606796
  54.4127710 -10.2358026  43.5445645  53.7579116 -10.0938385  43.1376818
  35.2542307  16.8864899 -11.2196089  35.1123557  16.4388499 -10.4843338
  35.8356050  17.4920877 -10.9821331  35.3191538  16.9098235 -11.0759135
 -13.9612534  15.3562560   1.6501019 -13.7006228  15.9355618   1.0520918
 -13.6651391  15.6886482   2.4004160 -13.8790107  15.4909326   1.6726004
  18.3793321  -4.7259337  18.9469398  17.7660284  -4.3397145  19.4325661
  18.9210476  -5.0712768  19.5372126  18.3687570  -4.7198955  19.1058723
  43.5226577   5.9982092   3.2038235  43.9987090   5.2799712   3.0672628
  43.2769743   6.2370851   2.4015034  43.5566878   5.9273976   3.0651314
   1.2730027 -14.8853082  23.5211453   1.2272787 -14.9710656  24.3881484
   1.4770094 -14.0445551  23.4086504   1.2963843 -14.7737797  23.6326017
 -10.9878016   8.0978176  54.3793260 -11.1882114   8.6029275  55.0618503
 -10.6385389   8.6557731  53.8067523 -10.9658129   8.2548542  54.3955680
  15.5327106  34.7079390 -25.3226629  16.3302405  34.5721424 -25.6492282
  15.3902791  35.5551190 -25.4747774  15.6294821  34.8130250 -25.3933738
 -30.1767623   3.8708630  15.4572833 -30.9509851   3.5420842  15.6888501
 -30.3844105   4.5235938  14.9169461 -30.3218049   3.9187174  15.4116716
  28.9026246   0.7038753 -33.7216283  29.6555598   0.4753782 -34.0984799
  28.3316090   0.1240143 -34.0360197  28.9294978   0.5844642 -33.8237391
  28.8027939  12.0469725  20.2030876  28.3739840  11.3406845  20.4831214
  28.5818247  12.6631758  20.7798073  28.7068082  12.0336651  20.3296478
   4.2421505  35.4247849  -8.1055260   4.9304340  34.8958376  -8.0182325
   3.9389083  35.5029181  -7.2912294   4.2990291  35.3581903  -7.9723426
  16.5334342  78.4886590 -13.2133706  16.2776506  77.6808390 -13.4210751
  15.9092219  78.7686414 -12.6719757  16.4034407  78.4106865 -13.1640777
  41.7005038  40.0115789   5.3717064  41.3295558  40.7902617   5.2405948
  41.8270101  39.9873039   6.2345774  41.6643947  40.1230205   5.4798023
 -13.9847552  24.2001055  22.2916341 -13.5421853  24.6938012  22.8586755
 -13.3861398  23.9880440  21.6934458 -13.8309507  24.2417087  22.2870330
  -3.6310613  -2.4197412   4.2185142  -4.1748694  -1.8927266   4.6517208
  -3.9643975  -2.4407701   3.4125463  -3.7606336  -2.3449967   4.1634497
  27.5349517 -14.1881149   6.3256503  27.8318191 -14.9829527   6.1225684
  27.1179680 -14.3119264   7.0819140  27.5172081 -14.3238183   6.4073666
   1.1432677  43.1064319  -5.4066317   0.3670280  43.2186421  -5.7887315
   1.2119297  43.7951450  -4.8755015   1.0387439  43.2247448  -5.3846168
   3.1910451  16.8463740   7.7554415   3.9856294  16.5737382   7.5199737
   3.2299662  16.8636248   8.6268352   3.3141710  16.8086484   7.8493808
  -1.6832668  18.0652365 -25.8527910  -2.4568532  18.4667139 -25.8917710
  -1.4961854  17.8988129 -26.6885202  -1.7699057  18.0999588 -25.9820036
  23.7408567  -1.3570312  25.9560425  24.2569919  -1.5534599  26.6314386
  23.7328579  -2.0905837  25.4838389  23.8159189  -1.4944086  25.9860582
  33.2087357  -2.5751735  31.8880324  33.2281354  -1.8715407  32.4034585
  33.8022965  -2.3962259  31.2741897  33.2992826  -2.4447982  31.8734942
  10.7940175 -33.1059035 -27.2167266  10.7713081 -33.9751087 -27.1452691
  10.0127935 -32.8552157 -26.9201051  10.6752599 -33.1972712 -27.1623537
 -43.6418332  18.5792420  13.0827301 -43.6452547  17.7088064  13.0238250
 -43.8723603  18.8398899  12.2826929 -43.6763923  18.4891638  12.9558466
   4.7493302  36.5598758   9.6138340   4.7359599  36.1064942   8.8685784
   5.1347354  37.3100748   9.3906660   4.8042874  36.6037219   9.4707779
  13.8314916 -27.0765605  26.6143990  13.2514381 -27.5634348  27.0475628
  13.3355353 -26.5089405  26.1751105  13.6725428 -27.0646327  26.6134943
  30.8497460  10.9397647  -9.3253312  31.1606368  10.4316270  -9.9627342
  30.3450347  11.5126686  -9.7474533  30.8211147  10.9493320  -9.4818449
  45.3429755  51.5306297  38.1484245  45.7664975  52.0542518  38.7030311
  45.8761834  50.8450592  38.0658296  45.4843042  51.5067066  38.2181504
  28.6616707  29.8706983  -4.9610923  28.0874838  30.4306912  -4.6177894
  28.1996997  29.4512325  -5.5708224  28.5086088  29.8914571  -5.0004491
  26.6239179  13.0858469  45.2723961  26.6404468  13.9367705  45.4642176
  25.8195463  12.8391328  45.5031732  26.5075373  13.1751011  45.3348226
  41.3314146  -1.7132928  72.1024086  41.5421969  -1.6623660  72.9474629
  42.0992773  -1.8345989  71.7064146  41.4759806  -1.7236892  72.1687441
  34.0664610  21.3979120  46.5549818  34.6271226  20.9444176  47.0460428
  34.3346664  22.2230539  46.6463401  34.1889017  21.4528120  46.6410171
  -6.4921333  32.2875806  63.4626453  -6.0867398  31.5171106  63.4063272
  -5.8465568  32.8464544  63.6416161  -6.3368834  32.2563235  63.4807637
  10.1812417  33.7141527   1.1767656   9.6853250  33.0790532   1.5112124
   9.9040608  34.4303628   1.5907141  10.0670393  33.7261344   1.2873190
   4.0706378  20.6724588  45.1654217   4.0707592  21.4403703  45.5794886
   3.5245734  20.1840561  45.6391473   3.9899908  20.7137480  45.2965669
  -1.6631490  36.1450851  -2.2817674  -1.2617255  35.3765938  -2.1847116
  -1.0727151  36.7220223  -1.9995071  -1.5166312  36.1167886  -2.2257346
  60.7453684  13.6312548  30.0371240  60.6379444  14.2900959  29.4754052
  61.1459641  14.0041870  30.7165239  60.7886759  13.7836690  30.0545079
  -9.2113816  99.0317613  13.0199697  -9.1850435  99.5649476  13.7100119
  -8.3877328  99.0276620  12.7323497  -9.0858211  99.1099184  13.0794158
   7.7540525 -14.2587721  22.0255013   7.0573510 -13.7652886  22.2050021
   7.7757763 -14.8303671  22.6842478   7.6543444 -14.2703108  22.1493277
 -17.9269293  35.2668074  14.9819486 -17.6293107  34.5927015  14.5148898
 -17.2946609  35.4062956  15.5666871 -17.7895658  35.1878334  14.9993323
  -1.5313757  39.3455279  41.6689595  -0.8403896  39.0515613  42.1131007
  -1.3173811  39.1988329  40.8359971  -1.3976914  39.2804331  41.6115226
  45.9143188  54.3625032  41.7936808  46.5220302  54.9882023  41.7755995
  45.3488492  54.6078552  41.1762781  45.9205588  54.4911754  41.6998068
   5.6065755   2.9981796  57.5153785   5.6768958   3.7695109  57.9169288
   5.2782652   2.4752303  58.1317191   5.5684651   3.0348708  57.6657419
  -3.7228492  38.2094186  46.0723260  -4.3622480  38.7903035  46.1943153
  -4.0388853  37.4785814  46.4288897  -3.8639866  38.1872676  46.1430182
  -2.0002910  16.9821441  66.6316888  -2.7462660  16.8119797  67.0508605
  -1.4128465  17.0408740  67.2740278  -2.0237092  16.9656829  66.7884958
  50.2939796  31.9826726  32.6558747  49.5622234  32.4185046  32.8448799
  50.2352444  31.8462558  31.7961770  50.1772077  32.0269024  32.5567996
  -6.8344936  29.2247489   8.2830596  -7.3221622  28.6058658   7.9084898
  -7.1430082  29.9649634   7.9394891  -6.9521063  29.2426720   8.1769755
  24.2351614  44.1772610  46.3833945  24.1941301  43.3106650  46.2913766
  24.3672308  44.2866897  47.2388023  24.2486096  44.0654118  46.4961629
  24.1347612  15.6933937   6.0828360  23.4839365  15.8886860   6.6300358
  23.7258562  15.5151441   5.3330605  23.9782173  15.6959113   6.0529114
  46.4541371  19.7343419  58.5458933  45.9210712  19.2342624  59.0222343
  46.3960571  20.5170335  58.9268920  46.3668127  19.7760895  58.6725400
   9.4205675  73.6541508  34.1608320   9.7213396  73.1998131  34.8421931
   8.6524491  73.9589729  34.4405052   9.3515308  73.6320643  34.3027965
 -20.2034073  60.2663345  40.0117908 -20.5590774  59.4923900  39.8229838
 -20.0714919  60.6279446  39.2288629 -20.2364604  60.2054242  39.8682455
  24.9296099  11.0501809 -26.9614588  25.4375710  11.6793284 -26.6339098
  24.5205932  11.4415639 -27.6252843  24.9442260  11.2009343 -27.0111338
  -4.2832620  66.2059144  16.2829200  -4.0906909  67.0417103  16.1232295
  -4.4375046  66.1913719  17.1414870  -4.2776001  66.3272305  16.3861585
 -25.2384351  12.0466772  24.8905377 -25.5926047  12.2395051  25.6641790
 -24.3870327  12.1928519  25.0125478 -25.1649836  12.0967549  25.0228439
   4.0532950   7.9898505  42.1480503   3.2125890   7.8117954  41.9975528
   4.4223970   7.9175518  41.3608553   3.9836294   7.9528681  42.0095338
   0.1847359  35.4950112  76.7718158   0.9045384  35.3124405  76.3138946
   0.0726852  34.7868169  77.2688520   0.2745133  35.3634268  76.7775938
 -25.6585033  30.5699323  80.1370054 -25.8083774  30.4922355  80.9929496
 -26.4139005  30.8733079  79.8231935 -25.7922305  30.6032697  80.2170895
  26.0746028  30.9793694  39.3577616  26.7353617  30.8310648  39.9078008
  25.6117290  30.2405210  39.3892342  26.1038345  30.8483186  39.4436629
   7.5587859  63.4698598  11.8275173   7.4361158  64.1495594  11.2945070
   8.4267026  63.3861862  11.8568261   7.6688742  63.5579051  11.7531102
 -11.5376725  15.7144997  26.7929665 -11.5841303  16.0566883  27.5941457
 -11.8656471  14.9122993  26.8931994 -11.5929839  15.6465465  26.9261236
 -10.1830551  33.5349664  71.7733642 -10.8613284  33.1020413  72.1105002
  -9.4922166  33.1632604  72.1550922 -10.1811990  33.4161058  71.8795552
  42.5884523  47.1047932  42.0945961  42.6977090  46.2592571  41.9094710
  42.1862509  47.4193598  41.3871915  42.5451784  47.0263580  41.9627511
 -15.5192932  33.3104959 -17.3410135 -15.8848794  32.5190222 -17.3085230
 -16.1508149  33.8148231 -17.6696074 -15.6665866  33.2680784 -17.3847541
   9.5437901  57.8775389  19.7555050   9.6962241  57.1469631  20.2073484
   9.0190698  58.3371125  20.2795281   9.4887958  57.8375063  19.8996606
 -11.6580249  28.0534973   0.6529259 -11.4289483  28.8721213   0.8491865
 -11.0619404  27.5689348   1.0664739 -11.5361316  28.1028451   0.7430072
  -7.2014116  60.7416686  43.0551357  -6.6066429  60.1112046  42.9556119
  -7.9077992  60.4223087  42.6549290  -7.2179000  60.6013600  42.9813152
  16.2488603  72.1437971  19.3899147  15.4084239  72.0615112  19.1707451
  16.2303563  72.1873586  20.2610631  16.1219771  72.1380767  19.4862254
 -12.9043285  -2.1211911  19.7257812 -12.4689442  -2.4715074  20.3957503
 -13.5273983  -1.6475358  20.1112344 -12.9320535  -2.1029714  19.8816888
  26.9038963  27.7384877  26.6780695  26.6867963  26.9026478  26.5540579
  26.1343127  28.1486032  26.7042604  26.7581428  27.6755994  26.6636194
  -4.7193687  20.5431119 -14.9814418  -4.8276555  20.1339833 -15.7443490
  -4.7846523  19.9017330 -14.3936403  -4.7450087  20.3879303 -15.0073085
   7.8599860  37.5363645  27.2166165   7.5777657  37.5732211  28.0413182
   8.7231670  37.6393909  27.2903981   7.9458059  37.5570281  27.3493410
  24.6678098  18.3074191   1.9981070  23.8680334  18.5707479   1.7697321
  24.8703635  18.8257230   2.6700241  24.5795877  18.4228824   2.0636274
  29.2949773  35.4492292  16.8976145  28.8160302  35.3359182  16.1772605
  29.1328176  34.7317489  17.3667262  29.2002726  35.3265042  16.8605008
   0.5110815  12.1328748  12.3861089   0.0459739  11.7386885  13.0101534
  -0.0964811  12.4936295  11.8743831   0.3526260  12.1279362  12.4027007
  15.7949090  40.0347362  32.7643648  15.2015169  40.5251966  33.1748206
  16.5551148  40.3311976  33.0731321  15.8195508  40.1509808  32.8706089
  21.6684972  22.6098709  32.1977243  21.7882125  22.7815705  33.0446759
  20.8805269  22.2361618  32.1735618  21.5697822  22.5800300  32.3192672
   6.8965592  21.5561695 -29.4400758   7.5296957  20.9935964 -29.2308169
   6.2094058  21.2702644 -28.9848637   6.8885798  21.4308318 -29.3419197
  14.7212270  -9.1934828  10.3010620  14.5229420  -8.5850245   9.7081024
  15.3893089  -8.8429498  10.7391632  14.7906257  -9.0518200  10.2781862
  27.0301637  -7.6322508 -25.4659754  26.3669412  -7.7402527 -24.9095484
  27.1443736  -6.7675057 -25.4836264  26.9490632  -7.5204642 -25.3863871
  14.1680551  24.0034053  41.9091574  13.7629091  23.6641359  41.2149727
  14.9254332  23.5712143  41.9361571  14.2200871  23.8894447  41.8106004
  20.4385004   1.2874082  54.2742913  20.6292680   0.4869237  54.5640704
  20.2741188   1.1648237  53.4262988  20.4423981   1.1510519  54.1918316
  21.6589898  24.4370584  57.0516472  21.8887922  24.0436604  56.3076255
  20.9374110  24.8776406  56.8363545  21.5863443  24.4440285  56.9099367
 -37.2566282  27.7784276   8.9690560 -36.6123238  27.3961661   8.5219681
 -37.7117577  27.1060669   9.2883174 -37.2286832  27.6226381   8.9501734
   8.8193601  -2.3429481  73.4998073   8.7176459  -2.4210218  72.6368483
   9.4627181  -1.7589673  73.5785250   8.8993720  -2.2682152  73.3839587
  -5.3758849  60.7971237 -14.5126744  -5.7185402  61.5354788 -14.1987338
  -4.5217443  60.8855994 -14.3585464  -5.3003280  60.9192637 -14.4435310
  23.3087073  25.0507494  -9.4368839  23.9872061  25.2071875  -9.9625321
  23.1355238  24.2063062  -9.5712812  23.3833528  24.9491169  -9.5343862
  20.2046088  43.4815905  -6.6582737  20.6666189  43.9540701  -6.0886692
  19.3918208  43.5178966  -6.3433181  20.1527917  43.5567487  -6.5276059
  53.9894734  58.9653081  47.6032858  54.4202593  59.5903916  48.0332087
  54.4855524  58.2571295  47.7195966  54.1263904  58.9530332  47.6839758
  15.8230375  12.9278922  30.0045192  15.6344817  12.2675117  29.4664822
  16.6281389  12.7412825  30.2840335  15.9141140  12.8027743  29.9663301
  -1.4046925  64.5689228  18.3061334  -1.4380002  65.4164311  18.5104856
  -1.6981650  64.5442401  17.4849122  -1.4529647  64.6904711  18.2150091
   3.9292606  14.4150426  10.9061094   4.3286783  14.7073034  10.1876467
   4.1561438  14.9948910  11.5172063   4.0217782  14.5438711  10.8902492
  26.8011972  54.6109194  18.8436131  27.0037305  54.7209148  18.0021733
  27.3153026  53.9519895  19.0939060  26.9070595  54.5298305  18.7562885
 -37.8088026  30.2264718  10.0106842 -37.9389707  30.8473866   9.4118015
 -37.6909983  29.5044594   9.5353319 -37.8106290  30.2115376   9.8519976
 -13.1224243  57.8676768  16.3836673 -13.4776741  57.4883320  15.6829287
 -12.2712615  57.6949421  16.3010586 -13.0491677  57.7861233  16.2679507
  22.4570536  43.7127082  40.3736803  22.7451375  43.7462186  39.5508655
  22.1362973  44.5122563  40.5114400  22.4522272  43.8357681  40.2724836
 -22.5015905   2.1229355  48.9528228 -23.0239848   2.1427492  49.6512863
 -22.7889734   1.4340302  48.5012034 -22.6212113   2.0240969  48.9892868
  27.4729572  34.1642563  -7.0067833  27.0964142  33.4556999  -7.3492780
  27.0678699  34.2615837  -6.2402514  27.3574943  34.0739652  -6.9441443
   4.8510293 -15.5967808  26.0593055   4.4726163 -15.7597014  25.2902801
   5.4434208 -16.2327400  26.1352515   4.8826383 -15.7147918  25.9569234
 -53.0191701  36.2651049   2.1838250 -52.4999887  36.1023615   1.5018390
 -53.4189073  35.5023994   2.3239325 -53.0015257  36.1283970   2.1037783
  71.9794786  43.9531807  -8.2683514  71.9247637  44.5884851  -7.6729237
  71.9937126  44.3837439  -9.0270030  71.9734987  44.1106313  -8.2924629
 -14.5722730   7.0057625  57.7448219 -14.8916405   7.0006836  58.5566828
 -14.7794833   7.7994916  57.4478410 -14.6500594   7.1222624  57.8208803
 -18.5907475  51.1263282  33.0775702 -18.2070052  51.2244694  33.8549052
 -19.4421715  51.1246845  33.2678698 -18.6598337  51.1405828  33.2205098
  35.2159419  41.9899153  38.6048112  35.7395710  41.8647254  39.2913092
  35.6844397  41.6910253  37.9322682  35.3624995  41.9272700  38.6068726
 -14.4092480 -18.7439427  12.1918337 -14.6429232 -18.4955509  11.3888163
 -15.1316489 -18.6169036  12.6642081 -14.5504801 -18.6884838  12.1429909
 -53.0977634  37.7536413  19.2220799 -53.0248340  37.1190836  19.8163504
 -53.9579874  37.8903762  19.1725057 -53.2140630  37.6801026  19.3025428
  75.6667535  72.5516210  10.3842449  76.4035044  72.8123948   9.9965149
  75.8132885  72.7086091  11.2298345  75.7972330  72.6133330  10.4518802
  13.4385133  49.2882282   5.4950063  13.7657005  50.0446529   5.2088074
  14.1474174  48.8054624   5.6547924  13.5915653  49.3286533   5.4763326
 -14.1897626  44.3924140  49.2134048 -14.3322631  45.1222316  49.6696936
 -13.3356963  44.2484407  49.3181999 -14.0846496  44.4789553  49.2962884
  56.4529475  28.2324325  40.8229007  56.6403292  27.4589926  41.1804176
  56.2487880  28.0332418  39.9984121  56.4504691  28.0887549  40.7539194
 -56.7024433  30.8431866  69.2438040 -55.9828244  30.4011097  69.0250435
 -56.9051569  31.2784760  68.5154016 -56.6260857  30.8421840  69.1038885
   1.8199105  24.1036506  23.8937650   2.5111048  24.0717328  23.3623788
   1.2424567  24.5845307  23.4505484   1.8367123  24.1699716  23.7497961
   7.0072167  62.4721795  31.1710114   6.9605103  63.0433321  30.5131795
   7.8407118  62.5189256  31.4244681   7.1234416  62.5634559  31.1112768
  39.7731455  41.8340237  12.0949273  39.4113923  41.6065187  11.3343252
  39.3759129  42.5846691  12.2946202  39.6610277  41.9113023  12.0120694
  18.1420848 -41.8771100  46.4235651  18.8088353 -42.4393951  46.4440248
  18.4138640 -41.2565636  45.8738399  18.2807250 -41.8685036  46.3453817
  -8.6464910  55.6421811  49.3308246  -8.9349548  55.8633915  48.5377331
  -8.0409216  56.2457067  49.5045544  -8.5996480  55.7640116  49.2393321
  -6.5288556  15.9887056  41.7485703  -5.7776591  15.6483599  41.4639509
  -7.1073797  15.3495287  41.6147711  -6.5033483  15.8440099  41.6867613
   3.4657816  32.7352249   9.3965774   4.0158451  33.3276744   9.0685937
   3.9915673  32.0907121   9.6598115   3.6247067  32.7275341   9.3870126
 -20.3851838  40.5503007  -7.2820762 -20.4462314  41.2873686  -6.8193196
 -19.7410271  40.1134099  -6.8879593 -20.2990466  40.5946430  -7.1554983
  14.6172305 -13.4740417  34.1872743  13.8279311 -13.7618663  33.9521086
  15.1372678 -14.1591887  34.0414167  14.5774550 -13.6177697  34.1309893
  -6.1809206  15.7115248  23.6561174  -5.9301278  16.5466652  23.6281327
  -6.4101738  15.5940104  24.4896477  -6.1777387  15.8175330  23.7751131
  30.6879409  42.7295090 -18.4061181  30.3965618  42.0670084 -17.9189521
  31.1539889  43.2076101 -17.8445505  30.7137431  42.7022694 -18.2511986
 -46.9654528  -5.0283188  26.1328717 -47.8016293  -5.2762032  26.1104737
 -46.9281881  -4.4943102  26.8217735 -47.0834685  -4.9860523  26.2313280
   0.4925170  -9.5963448   3.4838900   0.3171936 -10.1474001   4.1371428
   1.2158809  -9.1871293   3.7492707   0.5734739  -9.6172974   3.6195911
   2.4226441  28.7558896  34.0560061   2.7884029  29.3307104  33.5110830
   3.1061335  28.3808802  34.4476050   2.5776397  28.7854059  34.0333570
  44.1493267  20.1466631 -19.8211534  44.9791594  20.4125547 -19.7785054
  44.1207998  19.6808612 -20.5582792  44.2676961  20.1171322 -19.9237421
 -13.8988849   6.0805357  24.3484680 -14.7408846   5.8734888  24.2519923
 -13.5057766   5.6480554  23.7007287 -13.9651954   5.9860643  24.2385321
  32.4232895  22.7438188  -7.0011574  32.9263398  22.4027838  -6.3752380
  32.1314746  23.4862924  -6.6480051  32.4544933  22.8031195  -6.8565283
   0.6010688   6.2113326   3.7811396   0.1707376   6.8370374   4.2106138
   0.0537966   5.5323276   3.8053229   0.4566566   6.2034591   3.8481542
  13.2970520  20.3373011  -9.3902715  14.0764707  20.4782045  -9.7560478
  12.7370335  20.4558861 -10.0486455  13.3294619  20.3756329  -9.5415596
  27.7882391  55.7403190 -34.5412441  27.6952460  54.9685802 -34.9373639
  27.3859179  55.6275819 -33.7753671  27.7150710  55.6096637 -34.4866233
  -3.5722043  -4.3727653 -20.2445410  -4.2454831  -3.8982882 -20.5321285
  -3.5221679  -4.1660948 -19.3984186  -3.6642700  -4.2721458 -20.1620339
  13.3077049  36.0745036  29.7625265  13.7625942  35.7798738  30.4461994
  13.6019166  35.5926931  29.0973667  13.4183626  35.9598073  29.7652613
   6.0650739  55.1541599   3.4597865   5.5441544  55.8074454   3.7107853
   5.8524488  55.0323796   2.6224696   5.9567143  55.2326742   3.3731753
  40.9826180  69.4975365  11.9771584  41.2501950  70.3198370  12.0927612
  41.2035628  69.3241257  11.1511731  41.0547827  69.5933909  11.8722202
  34.5863570  36.3975420  -1.0924829  35.4426300  36.5625309  -1.0657493
  34.2234295  37.1898840  -1.0522670  34.6592343  36.5389595  -1.0825931
   7.8696370  -2.7394960  29.5273584   8.4760968  -2.2098093  29.1915341
   8.0047117  -3.4950166  29.1125295   7.9791769  -2.7728563  29.4164714
  16.5671566  45.8699635   3.2533007  17.2799848  45.8047743   2.7545364
  15.9491817  46.1297613   2.6949534  16.5811684  45.8987112   3.0971435
  -1.5466649  31.2418643  19.0705285  -0.8461180  31.2140486  19.5897585
  -2.1975650  31.4446162  19.6149183  -1.5393310  31.2677060  19.2276471
  39.1016901  30.4539282 -17.4553908  39.1023950  31.0384223 -18.1030833
  39.8262194  30.6429968 -17.0076744  39.2088221  30.5681993 -17.4849314
  41.8399484  74.9444984 -16.4015223  41.6482586  74.1017362 -16.5204613
  41.2394687  75.3607205 -16.8783062  41.7229286  74.8814897 -16.4895229
  37.5648910  34.0506861 -15.8259623  37.4205367  34.5314987 -16.5394892
  37.2846671  33.2564716 -16.0536405  37.5021720  34.0043902 -15.9649977
  34.0343443  39.0791176 -14.5604088  33.2141596  39.3761209 -14.5453900
  34.2372627  39.0798309 -15.4089152  33.9431614  39.1230965 -14.6835321
  20.8928078 -17.9505032   4.1291931  20.4205210 -18.0132903   4.8600437
  21.6032406 -18.4262918   4.3025424  20.9279869 -18.0300620   4.2627621
  -5.1202018   1.5782318  18.4746293  -4.8271824   2.0317399  17.7893486
  -5.5227064   2.1797605  18.9617563  -5.1363750   1.7340825  18.4453579
  31.9293495  42.2175864   4.4895226  31.2833741  42.1140438   3.9123448
  32.1102327  43.0698605   4.4442497  31.8606458  42.3281895   4.3975738
 -12.3048493  61.2003251  80.4505101 -12.4011812  61.2651202  81.3151841
 -12.3782502  60.3441985  80.2995164 -12.3299223  61.0834291  80.5559354
  49.4169249  46.7040577 -14.9475553  49.8540822  47.3608015 -14.5751033
  48.9109873  47.1022252 -15.5363076  49.4067646  46.8598898 -14.9795073
 -25.0996833  47.4080438  -0.4499650 -25.9700566  47.4151338  -0.5094603
 -24.9500507  47.0355627   0.3246365 -25.2061516  47.3540680  -0.3443290
  -9.8321510   3.5480735   3.0630813  -9.2646394   2.9366674   3.3185274
 -10.2264733   3.7845409   3.8045209  -9.8065674   3.4926874   3.2103419
  -9.2273775  21.6110903   4.0757324  -8.6509266  21.3458770   3.4769789
  -8.8185001  21.4658409   4.8326084  -9.0818242  21.5504565   4.0990904
  29.1871557  49.7941077  24.6305660  28.3161182  49.8225135  24.5902389
  29.4379086  50.0568784  23.8373358  29.0955269  49.8371205  24.5074324
  -4.2435814  32.3746069  -5.9905342  -4.2617138  31.6704687  -5.4757524
  -5.0863827  32.5336610  -6.1503071  -4.3707591  32.2940867  -5.9380920
  29.4428298  17.2829614  22.3818114  29.9681467  17.9733719  22.2895346
  29.6020594  17.0113429  23.1954506  29.5439514  17.3448256  22.4883715
  57.1889400  36.0627710  17.4787833  56.4989668  35.8530606  17.9698007
  57.3336721  35.3415748  17.0096689  57.1083967  35.9252569  17.4820188
 -12.1547940  14.8177728  16.7922769 -12.3883683  15.6564634  16.7358798
 -12.8023701  14.4548617  17.2506221 -12.2849580  14.8880552  16.8516529
  -1.4303735  44.4735427  23.0740890  -1.3494071  44.0040943  23.8049803
  -1.0504843  43.9751983  22.4670663  -1.3622956  44.3305798  23.0923869
  35.2690086  40.5133319  13.8476995  36.0792785  40.6027303  14.1585214
  35.0924682  41.2967666  13.5068139  35.3626235  40.6422673  13.8432585
  -3.1606578  35.9048500  18.5324388  -2.7647878  35.7301834  17.7748650
  -3.5652597  36.6630930  18.3824240  -3.1619477  35.9910563  18.3983693
  39.4618747  55.3316729 -20.2946672  38.8587951  55.8156208 -19.8906512
  39.9272035  54.9939607 -19.6384972  39.4415260  55.3532750 -20.1380559
 -12.7518226  18.0281660  25.7852214 -12.4167621  17.3294965  26.1861389
 -12.5628845  18.6856302  26.3266851 -12.6744172  18.0220792  25.9244305
  22.0870169  34.0871836  19.5022823  21.4796439  33.7373458  18.9828104
  22.4583794  34.6975170  19.0015603  22.0521533  34.1256642  19.3515787
  -7.6526441  21.3263434  29.2129551  -7.0762729  21.6964246  29.7533028
  -7.2994894  21.4446673  28.4240187  -7.5153340  21.3984909  29.1762334
 -67.9422138  16.2989557  61.9117572 -68.7554312  16.0582722  62.1164238
 -67.4783056  16.0733721  62.6153485 -67.9938140  16.2300785  62.0459256
  -6.0365605  22.8400732  72.2750286  -6.0725294  23.6965436  72.1128426
  -6.0907302  22.7934990  73.1445319  -6.0498759  22.9597116  72.3795140
  16.6841245  22.0510226   1.7216988  17.4227569  22.0495503   1.2574148
  16.5902852  21.2171749   1.9605120  16.7793737  21.9276286   1.6883921
 -53.7423444 -23.4810306 -36.3727183 -54.0989265 -22.7245159 -36.6210611
 -54.1880325 -23.6913397 -35.6528074 -53.8608563 -23.4003448 -36.3030580
 -11.8299715   2.6281052  16.9721090 -11.4073424   3.3911841  16.9874349
 -11.2390839   2.0603055  17.2714331 -11.6802542   2.6569520  17.0185893
  27.1764441   7.8288490  50.0898290  27.6739635   8.5453308  50.0734661
  27.7124623   7.2139277  50.3991763  27.3291189   7.8438516  50.1331088
  13.3601589   3.3934260  12.7133375  13.8848921   3.8192506  13.2651237
  12.6983491   3.1335507  13.2189185  13.3399098   3.4179402  12.8695324
 -41.1941203  25.6864075   7.3431710 -41.0143949  25.1716119   8.0242172
 -40.9589236  26.4801968   7.6183450 -41.1328277  25.7276206   7.4844245
  38.9813001  38.2422643  35.2737461  38.8267723  37.3943562  35.4090703
  38.7133472  38.3712615  34.4535628  38.9188910  38.1360663  35.1725783
  51.7916905  -8.1671356  12.4548699  52.1184262  -8.4063010  11.6820936
  52.5007595  -8.0418628  12.9474827  51.9447002  -8.1839599  12.4134840
  -2.6197360  28.0817094  36.8262758  -2.4136865  27.2600535  37.0349973
  -2.1036876  28.5599669  37.3421279  -2.5130672  28.0309824  36.9333102
   8.7756087   6.4403673  79.1087084   8.0252143   6.8839630  79.0730637
   9.3674430   7.0531906  79.2966428   8.7521861   6.5964222  79.1312048
  -8.3483924  -3.1922818   9.2413368  -8.2197171  -3.1445204   8.3797678
  -8.6284509  -2.3932023   9.4515240  -8.3707548  -3.0671859   9.1451143
  -9.4166032  -1.2710206  43.4662142  -9.9993065  -0.6520161  43.6622494
  -9.3040666  -1.1816752  42.6056955  -9.4860565  -1.1663827  43.3680562
  28.5343439  45.9026447  27.8837510  28.1329933  45.5418954  27.1982460
  29.1906096  45.3524033  28.0501522  28.5720001  45.7680726  27.8070687
 -18.5385601  70.1967871  36.6861093 -19.1690722  69.6849899  36.3672714
 -18.9757309  70.8153588  37.1189953 -18.6962789  70.2125599  36.7029566
 -21.5352893  33.5781536  28.6204438 -21.0803645  33.0754552  28.0713743
 -22.2781229  33.7324017  28.1896941 -21.5778194  33.5266803  28.4757043
  13.0891514  55.4670558  35.9438038  13.2634567  55.3086877  36.7838495
  12.4061346  56.0089745  35.9746519  13.0140043  55.5237141  36.0724528
  -8.7657440  37.3744399  24.6601389  -9.3492149  36.8522395  24.2754210
  -8.3735064  36.8525375  25.2388505  -8.7939931  37.2202044  24.6887958
   6.4645538  -3.7586607   4.0997409   7.3042651  -3.9936128   4.0710715
   6.4159053  -3.2577941   4.8124158   6.5814101  -3.7193797   4.2007826
  11.8022405  20.8807016  64.5113219  11.2744868  20.4180523  63.9930833
  11.6338976  21.7076020  64.2898814  11.6994127  20.9345090  64.4020560
  60.4265123 -10.8122905  12.5132076  60.1821922  -9.9885544  12.3618600
  61.2869097 -10.7503814  12.6436802  60.5175196 -10.6814625  12.5101239
  50.2482332  40.9481576  41.6073445  50.4628943  40.1885770  41.2357298
  49.5796411  41.2314206  41.1237266  50.1811782  40.8777957  41.4810090
  -4.7762365  -5.2990142  85.7960107  -4.9909866  -5.5897320  85.0019672
  -4.1384737  -5.8390110  86.0466132  -4.7137488  -5.4217279  85.7157333
  63.9206050   8.7003743  53.3974619  64.7474358   8.5000069  53.5907059
  63.7564039   9.3970468  53.8962854  64.0184890   8.7736888  53.4996945
  32.9386693  54.8756673  23.7288245  33.7405732  55.1566995  23.5310606
  32.4551200  55.1437143  23.0539390  32.9856968  54.9567776  23.5999162
  43.8301840  16.0591598  58.6210610  43.2839535  15.5019292  58.2308485
  44.5276246  16.0636729  58.0969467  43.8525209  15.9775120  58.4859961
  20.2146616  31.0149252  15.7345450  20.8498817  30.4481871  15.9254455
  19.5679993  30.5074450  15.4422587  20.2129713  30.8562410  15.7195682
 -28.0970897   1.3431681  68.3652623 -27.4580740   1.3383725  68.9592114
 -27.9406341   0.6285698  67.8898568 -27.9795822   1.2368988  68.3827736
 -11.3450214   4.5430710  54.3732885 -11.4660937   3.7581044  54.0123059
 -10.8398836   4.9586326  53.7959810 -11.2882870   4.4885023  54.2346837
  21.5341204  11.0095562 -11.8470386  21.6453946  11.7903710 -11.4740965
  22.3446029  10.7662348 -12.0592943  21.6702829  11.0889550 -11.8233019
   9.1371200  24.3858739  21.7247779   8.5566203  23.7577161  21.8967588
   8.8790236  24.6976936  20.9519297   9.0132421  24.3391442  21.6360174
   7.7982667  64.4955680  27.6682816   7.1778967  65.0303177  27.9688199
   7.8323873  64.6794142  26.8161220   7.7116656  64.6017194  27.5867957
   0.1733998  25.0250363  32.7646874   0.1986777  25.7592339  33.2352767
   0.6402412  24.4610776  33.2391863   0.2460960  25.0501841  32.9042964
  67.9009401  49.1504553  55.8962340  68.4029910  49.8111927  56.1655118
  67.0957078  49.4859531  55.9097120  67.8561540  49.2976197  55.9380029
  10.8277026  51.3799440 -17.8564021  11.0831258  50.5676604 -18.0463858
  11.5674205  51.7776106 -17.6201433  10.9747055  51.3186965 -17.8495663
   8.0270523  22.5988074   6.4625045   8.5354046  22.7737969   7.1495971
   8.5614689  22.7012366   5.7805612   8.1810908  22.6397879   6.4632652
 -40.6230659  28.3684548  44.2831944 -41.1650360  27.9777561  43.7221573
 -39.9185095  27.8539368  44.2798706 -40.5990486  28.2347356  44.1998267
  34.3783036  52.2521415  -8.9266340  33.7677337  51.6409231  -9.0481087
  35.0584834  51.8035098  -8.6148256  34.3885864  52.0955798  -8.8985178
  47.0454072  14.0186371  17.0998599  46.8620879  13.2724953  16.6865731
  46.6768172  13.9148421  17.8837652  46.9638788  13.8930839  17.1546079
  48.4452765 -12.7289703  38.3806619  47.8698149 -12.4820869  38.9881420
  48.5978580 -13.5665991  38.5710206  48.3828084 -12.8162356  38.4985191
  43.0931081   8.8018180 -15.5230710  43.4291974   8.8189563 -16.3279871
  42.8559495   7.9689022 -15.4174935  43.1077222   8.6813109 -15.6263777
  32.1790507  -6.8539500  55.7193287  31.7009527  -7.5211854  56.0148938
  32.9232342  -6.9193617  56.1699413  32.2183570  -6.9621771  55.8295545
  22.5415203  37.4888762  66.8072511  22.9190361  36.7044797  66.7494278
  22.4242051  37.5973419  67.6649293  22.5799573  37.3890273  66.9254062
  38.6571395  -2.5659370  80.5891624  39.0710487  -2.1831326  81.2549547
  38.0170705  -3.0148367  80.9763837  38.6237310  -2.5757006  80.7447142
  -4.7424766  36.7583806  27.7614740  -4.6791112  37.5734461  27.4568552
  -4.3092571  36.2844051  27.1708746  -4.6691208  36.8087666  27.6292318
 -13.6511053 -31.8441277  40.1468108 -14.3192598 -31.7898842  39.5884500
 -13.1273490 -31.1899683  39.9041291 -13.6724359 -31.7394820  40.0284803
  -4.1394269  19.5362373  33.4176400  -4.7170397  19.3343263  32.7957598
  -4.5986767  19.4629145  34.1557815  -4.2925929  19.4955796  33.4348142
   6.9438257 -22.4465555  46.6789682   6.3513796 -22.0846006  46.1506351
   7.6947647 -22.3418131  46.2473907   6.9672383 -22.3776147  46.5371696
  -2.2554296   1.6804102  61.4317097  -2.2055862   0.8920341  61.0614148
  -1.4206402   1.9146091  61.5287518  -2.1247511   1.5985468  61.3913446
  30.2989931  17.4824900  56.6274445  30.9137054  18.0823197  56.7806526
  30.1919292  17.5148527  55.7622107  30.3739832  17.5758779  56.5222636
   9.8169206  30.8508012   8.1455027   9.0255029  31.0334983   7.8270387
  10.2104959  31.6288275   8.1757195   9.7581511  30.9927199   8.1029227
 -23.9387149 -29.4874187  34.4584755 -23.8600048 -29.3489911  33.6006981
 -24.1538587 -28.7029934  34.7739587 -23.9588690 -29.3510943  34.3783675
  32.1787500 -23.0790121  69.1040518  31.7335878 -23.7948809  68.8793253
  33.0100048 -23.3001866  68.9583233  32.2357838 -23.2174327  69.0493280
  12.9817049  45.6893832 -17.9426116  12.8411004  46.5100057 -17.6819421
  13.4774705  45.7823598 -18.6544482  13.0341695  45.8243406 -18.0092583
   4.7930302  38.3442237  31.9782077   4.8474748  38.6709750  32.7853068
   4.7309560  37.4838816  32.1089666   4.7919032  38.2654013  32.1167487
  -8.4981237  66.3444389  21.0003115  -8.4949407  65.9377963  21.7721736
  -9.0500179  65.8689631  20.5202332  -8.5791797  66.2141318  21.0434140
  77.1473715 -15.4365434  46.0585434  76.8132963 -15.0380442  46.7590658
  76.5185930 -15.9919464  45.8191593  77.0051382 -15.4597214  46.1266630
  41.7262083  17.4314865  80.4876731  42.3582436  18.0137443  80.3371845
  42.0023908  16.7165895  80.0707977  41.8603708  17.4118930  80.4038617
  67.2494866   4.7022814  19.4583355  67.9509515   4.4477568  19.0063357
  67.0540094   5.4793838  19.1133136  67.3242314   4.7794769  19.3405990
  10.6203724  14.9232921  18.3642678  10.2450646  15.3176765  19.0459896
   9.9443368  14.6896406  17.8647456  10.4650673  14.9470356  18.3911824
 -52.8218918 -22.2344587  37.7080078 -52.4858012 -21.9313110  36.9621632
 -53.3257675 -22.8986592  37.4509349 -52.8466771 -22.2877936  37.5598562
 -22.3880065  38.6728000  19.3893379 -23.1607830  39.0658044  19.4868241
 -22.5998602  37.8498610  19.1917807 -22.5334567  38.6092898  19.3745553
  -6.6176281   6.5048793  10.9966477  -7.4605292   6.2805580  10.9782833
  -6.3172298   6.2372846  10.2225071  -6.6977669   6.4322132  10.8795784
  36.2238859  18.8357320  46.0090391  35.5202558  18.3991703  45.7343426
  36.6037141  18.2826140  46.5666506  36.1760537  18.6895359  46.0508314
   0.7983202  37.4899172   0.8158692   1.5251706  37.7378883   1.2297996
   0.8006738  36.6215162   0.8996161   0.9060387  37.3982669   0.8893864
  14.4682383   2.6584069   9.9870294  14.5056632   2.7560685  10.8531709
  13.6666034   2.3422853   9.8506912  14.3553487   2.6261359  10.0948364
  13.7258245   3.4031266  18.7805095  13.0518388   3.6108847  19.2940457
  13.3867179   2.8268563  18.2201001  13.5761699   3.3486897  18.7735854
   1.7864272 -11.6770341  30.5032035   2.6553743 -11.7076983  30.5748283
   1.5327507 -11.2953735  31.2455801   1.8773154 -11.6251847  30.6234483
 -28.5259350  11.1415236  11.3784439 -29.3600331  11.2454656  11.1447434
 -28.5634686  11.0720901  12.2472993 -28.6546930  11.1466212  11.4722694
   5.8378932  18.3683874  -6.4222222   6.2870418  17.8149089  -5.9191650
   5.0393847  18.3631437  -6.0708020   5.7862855  18.2858526  -6.2959983
  -4.1049190  23.0522200  52.5882570  -4.5755398  23.6502452  52.1616173
  -4.5948802  22.3320630  52.5387448  -4.2468168  23.0341786  52.5179195
  55.7733223  23.2683725   9.7204793  56.4114129  23.7035843  10.1261522
  56.1222108  23.0669714   8.9466227  55.9191194  23.3029112   9.6660910
 -16.9706023 -17.9267619  13.3042088 -16.9571761 -17.3452234  13.9544182
 -17.6239496 -18.4624962  13.5216154 -17.0651319 -17.9199957  13.4323735
 -19.9736343 -15.6746536  18.8464935 -19.3391178 -15.0793406  18.7822235
 -20.4868740 -15.5020856  18.1624285 -19.9557192 -15.5612217  18.7359490
 -26.5464853  23.1883957  20.2476923 -26.5966498  23.7486244  20.9146007
 -27.3196326  22.7843944  20.2605671 -26.6681054  23.2114737  20.3481103
 -15.8467733  60.3849331   0.3571041 -15.6266845  59.6490706   0.7708756
 -15.1867481  60.9264847   0.5366263 -15.7167623  60.3562294   0.4447458
  29.0008468  14.0574253  18.3445373  28.8798729  13.3766252  18.8765298
  28.2220054  14.1627197  17.9657777  28.8679255  13.9724112  18.3671729
  -4.5722039 -18.5975821  -3.0754146  -5.0301001 -18.4016426  -2.3591198
  -3.8913438 -19.0474881  -2.7669448  -4.5392675 -18.6350982  -2.9240358
   8.8744314  -4.7973240  19.7333972   9.1676540  -5.5317438  19.3649034
   8.0379329  -4.7643887  19.4877856   8.7941783  -4.9009477  19.6426812
   9.8056740  83.6023938   3.2429248   9.8894866  82.9584018   3.8254961
   9.0024286  83.9092472   3.3904964   9.6993989  83.5525915   3.3507820
  41.9772046  22.8989534  18.8449771  42.1948313  23.2035557  18.0569444
  41.5049386  22.1874111  18.6666179  41.9395891  22.8388400  18.7022211
   1.8182388  22.3627339  -4.0277734   2.6553649  22.5822339  -4.1381324
   1.5733924  22.0841769  -4.8174542   1.9057307  22.3540099  -4.1607278
  24.1433091  -5.0259889   9.9665914  24.4044686  -4.8722059   9.1484923
  24.7870141  -5.5117225  10.2995272  24.2769762  -5.0750249   9.8949228
  33.1987337  17.8781029  18.8224098  33.5380413  17.1087690  19.0550796
  33.8931638  18.4046353  18.7815432  33.3514381  17.8422361  18.8507431
   1.7091909  47.0128131  -1.0055008   1.1013560  47.4768456  -1.4254413
   1.2996842  46.2676890  -0.8099661   1.5589086  46.9712901  -1.0386501
   3.1512994  19.6539551   7.8621994   3.3805883  18.8157402   7.7849863
   2.6328710  19.6610122   8.5638558   3.1085876  19.5311760   7.9544425
 -39.7176200 -16.6826636 -32.2579222 -40.1602791 -16.8441963 -31.5236881
 -38.8957977 -16.5801189 -31.9836374 -39.6616098 -16.6913774 -32.1089432
   8.5177575  43.4027176  17.7065907   8.3784674  43.8013459  18.4700259
   7.7959664  42.9270078  17.5888738   8.3905581  43.3913311  17.8019766
   2.2299240  27.7747104  56.5214942   2.2663660  28.5527033  56.9146082
   3.0346720  27.6685618  56.2017244   2.3541851  27.8739556  56.5323287
 -49.2318292  29.6390860  25.3991008 -49.8521819  30.2367375  25.2608447
 -49.6518085  29.0013109  25.8210011 -49.3855077  29.6331589  25.4410009
  11.7382171  15.3756516 -35.6797826  12.2041835  15.7543192 -35.0468326
  12.0295470  15.7598713 -36.4068601  11.8500854  15.4883458 -35.6936872
   5.6524616   4.1891926  12.8598725   5.1196979   4.8539259  13.0481063
   6.4475716   4.5136790  13.0136521   5.6912156   4.3353207  12.9103949
 -21.9770450  14.8266416  26.3434692 -21.8757815  14.8015784  27.2096430
 -22.7280210  15.2577633  26.2371273 -22.0730209  14.8866248  26.4557121
  54.9721005 -19.9510656  12.3311577  54.7729627 -19.3420697  11.7390364
  54.3334179 -20.5389071  12.2435998  54.8483372 -19.9479407  12.2307550
  48.8608837  13.1340458  37.9672121  48.6560974  13.7426774  38.5577793
  49.2352499  13.5897731  37.3243263  48.8859342  13.2912735  37.9594836
  37.6082756  40.6544422  56.0900655  38.2526616  40.3417599  55.5919331
  37.6919030  40.2102943  56.8363085  37.7158182  40.5426428  56.1267166
  -1.7667710  27.4448222 -10.8691559  -2.4118708  26.9242227 -11.1411155
  -1.8253803  28.1369653 -11.3970218  -1.8707234  27.4701627 -10.9873066
 -13.1506076  -4.8697918   3.4273145 -12.5757826  -5.3950680   3.0338672
 -13.6003456  -4.5245721   2.7642167 -13.1321297  -4.8963899   3.2712410
   5.7591944   4.1501435  41.1232233   4.8900513   4.2257111  41.1276183
   6.0370308   4.9771368  41.1285648   5.6718462   4.2834703  41.1246616
   9.5153064   3.2228082  23.6472622   8.7795648   3.1776395  23.1805892
   9.5131231   4.0390923  23.9551825   9.4062997   3.3367178  23.6238111
   2.0498900  -3.6330665 -13.7481457   1.9053097  -2.8447262 -13.4035362
   2.1751889  -4.1419799 -13.0506883   2.0470417  -3.5917894 -13.5942109
 -41.7061170  37.8915292  29.7429493 -42.1332600  37.3838692  29.1764075
 -42.0217271  37.6447226  30.5179437 -41.8158369  37.7800789  29.7737421
   0.2323316  27.2853605  -3.5023300  -0.0285780  27.4457249  -4.3192443
  -0.0452768  26.4716216  -3.3543363   0.1527814  27.1888436  -3.6011433
   0.6716723  38.8354548  19.9026383   1.3080850  38.2391559  19.8792709
   1.0725802  39.5727893  19.6644154   0.8249059  38.8562886  19.8639960
   2.8800082  11.1420060  24.6669242   3.1852599  11.4372354  23.9048215
   3.4746692  10.5523488  24.9115099   3.0129439  11.0985130  24.5904763
   3.5262628  12.8943228  39.6403862   3.2322966  13.0956103  40.4367571
   2.9859259  12.2624776  39.3759108   3.4030191  12.8307205  39.7189581
  31.0629255  26.6826480  20.3297725  31.0106339  26.4445800  21.1674651
  31.8982832  26.9155285  20.2344647  31.1786005  26.6818817  20.4394381
  23.8689603   9.8303030 -24.8318606  24.0643424  10.1623909 -24.0491199
  24.2240631  10.3987806 -25.3903181  23.9502782   9.9633351 -24.7987293
  34.4387940  30.2244916  28.7788541  33.7166166  29.8471276  29.0906165
  34.9127444  30.3825871  29.4940578  34.4021257  30.1921012  28.9305582
 -15.6168040  38.2272686  40.6031712 -15.7800366  38.4316850  41.4354624
 -15.9534112  38.8975113  40.1575146 -15.6906406  38.3564738  40.6602851
   2.6649361  54.2663117  15.0345526   3.0590924  54.7509418  15.6435796
   1.9934904  53.9075819  15.4607136   2.6239747  54.2849097  15.1874712
  13.3873548  13.1956129  -3.1648208  12.8839447  13.5361571  -3.7907181
  13.0067699  13.4636487  -2.4269512  13.2567705  13.2855127  -3.1482801
  -6.1108847  -1.0872333  23.5956534  -5.4132993  -0.5796798  23.4656396
  -6.7088096  -0.7570791  23.0528610  -6.0961628  -0.9634866  23.4962661
  38.2750514  43.9121422  38.5726304  37.5734860  43.5723949  38.9644433
  38.9438809  43.5280480  38.9804027  38.2702156  43.8052159  38.6907456
 -10.8974233  55.2474946   3.2984802 -10.7847289  55.3334769   2.4376396
 -10.1058931  55.4120251   3.6264271 -10.7638507  55.2845005   3.2197608
 -36.3563894   6.8241711 -33.1291012 -36.5402321   6.3960674 -33.8667113
 -36.7862703   7.5782386 -33.2169882 -36.4470490   6.8723226 -33.2510441
 -13.9309287  53.2051662  15.6609331 -14.4529074  53.6543056  16.1966118
 -13.4876951  53.8262832  15.2379708 -13.9425610  53.3632651  15.6775837
   1.1161734  47.0955300  30.8874768   1.4025107  47.4790117  31.6169233
   1.4253976  46.2820163  30.9484311   1.2041501  47.0320054  31.0042353
  49.8993056  -0.6141279  73.6073927  50.5271769  -0.6376020  73.0021108
  50.0004909   0.1693388  73.9776373  50.0070023  -0.5018613  73.5726729
  18.6228623  44.1828470  48.0796034  19.3688653  44.5361050  48.3621415
  18.1215202  44.1641011  48.7933570  18.6590038  44.2322614  48.2267762
  -5.8045852   9.6840066  34.7690700  -5.6487590  10.3791125  34.2653980
  -5.3682321   9.8609174  35.5035345  -5.7171081   9.8128214  34.8031628
   0.0548454  -2.3462028  13.3933683   0.2106302  -1.5123989  13.5974310
   0.7829559  -2.5964508  12.9830385   0.1854150  -2.2599996  13.3628984
  31.7986648  38.0657291  31.2943021  31.9848742  37.4339632  30.7221679
  30.9739017  37.8979209  31.5239669  31.7043372  37.9476155  31.2437123
  27.1158406 -32.5196047  10.4791211  27.0562638 -32.3626381   9.6229952
  26.2853420 -32.6163959  10.7282056  26.9843581 -32.5107156  10.3894486
  49.3710769  48.5654072  -7.1354399  50.0894081  48.2211485  -7.4912849
  48.8421266  47.8787737  -7.0360136  49.3990523  48.4131232  -7.1733182
  13.9728053  51.1294641  52.5677370  13.4010489  51.6299335  52.9964147
  13.8376413  50.3337494  52.8989596  13.8683786  51.0858503  52.6799899
  35.6894907  38.6219792  -7.1501792  35.4070792  39.3429008  -6.7481154
  36.3351556  38.9113350  -7.6606002  35.7431507  38.7712180  -7.1661858
 -30.2528400   7.2496578  43.6594415 -30.1330815   8.1116206  43.5976546
 -29.4455958   6.9378134  43.7701183 -30.1159026   7.3309216  43.6666635
  36.6298330  49.1149556  35.7692443  36.3800641  49.5749660  35.0712863
  37.0002122  48.4041732  35.4246473  36.6476496  49.0779114  35.6152375
  -2.5830460  30.8298917  31.0110727  -1.8539731  30.9979008  30.5623352
  -2.6123741  31.4708531  31.6022139  -2.4796792  30.9493933  31.0321087
   5.5976529  30.3583836  -4.8227077   5.5898487  31.2205827  -4.6896992
   5.2926015  30.0324260  -4.0731513   5.5514377  30.4375975  -4.6923347
  -3.8002719  15.6376894  27.3917371  -4.6122932  15.6039102  27.0745308
  -3.9107715  15.9244533  28.2082516  -3.9365473  15.6750605  27.4654952
  27.4111684  37.0488896   3.3161583  27.5223447  37.4687921   4.0727700
  27.1092843  37.6678167   2.7804953  27.3829969  37.2023462   3.3487970
  18.2290925   4.6121684  14.1182440  18.5265758   3.9286909  14.5715670
  18.4659910   4.4330324  13.2979216  18.3080317   4.4847426  14.0640306
   3.6584813 -21.3006422  -3.1515424   3.4167664 -21.7658969  -2.4542250
   4.5245740 -21.4027250  -3.1760782   3.7507148 -21.3844496  -3.0521587
  -6.6164430  31.5750577  30.8357013  -6.8103371  31.8995197  30.0494004
  -6.1161621  32.1929756  31.1949170  -6.5711834  31.7142666  30.7726120
 -17.7080198  -1.6143848   0.7815274 -17.3236305  -1.5250623   0.0034491
 -18.3991698  -2.1191231   0.6121448 -17.7533347  -1.6757503   0.6415679
 -11.2846438  18.9138447   9.4033183 -11.5175785  19.5531935   9.9493166
 -10.4141917  18.9688088   9.3825400 -11.1904693  19.0164090   9.4809041
  13.4505824  26.4869354  47.0369758  14.1223422  26.1150065  47.4511584
  13.1131567  27.0248791  47.6352232  13.4999705  26.5114592  47.1865326
 -22.4792174  35.4714084  24.6804621 -23.1674335  35.0844233  25.0515961
 -21.8183156  34.9310586  24.8603800 -22.4832523  35.3344220  24.7618638
   6.9014207   8.5587299  37.4307242   7.0806216   9.3629697  37.1439753
   6.1543563   8.3587069  37.0269606   6.8175356   8.6479852  37.3287213
  19.6692010  10.3724885  51.4924056  19.3255719  11.1672421  51.5992951
  19.0934497   9.8458778  51.8827019  19.5333896  10.4120988  51.5658502
   9.1801415  10.8469670  55.1550431   8.4676411  11.2255285  54.8231186
   8.8838875  10.4428282  55.8692174   9.0311277  10.8431887  55.2115093
  24.3380941  45.9561505  37.6654594  23.8493766  46.6523759  37.4716425
  24.7366684  45.7692034  36.9122470  24.3247781  46.0313814  37.5255636
  -8.5439478  57.7384406  59.4036083  -8.2865060  58.5310541  59.6617306
  -9.0737540  57.9039346  58.7305134  -8.5841817  57.8799728  59.3423083
   7.8525914  57.1928432  41.2288365   7.1655597  57.3262231  41.7497365
   8.4781263  56.9304929  41.7774876   7.8435071  57.1737916  41.3868313
  39.9181291  13.6598502  55.8495283  40.5174609  14.0496730  56.3495074
  40.3270432  12.9466657  55.5574723  40.0670678  13.6120830  55.8802428
 -10.8618223   7.6277102  -8.9881329 -10.7434502   6.7774473  -9.1436340
 -10.2553528   7.8130438  -8.3889787 -10.7547483   7.5294865  -8.9225962
  63.2093579  25.2846264  -7.0014147  63.9899778  25.6015037  -7.2280440
  62.7985953  25.1858404  -7.7647331  63.2639934  25.3168430  -7.1476504
  -2.2741756   9.9858486  27.1946177  -1.5000310   9.9676243  26.7927377
  -2.0655185   9.9889862  28.0417257  -2.1289955   9.9836200  27.2603871
  35.4010381   7.4591874   8.2031887  34.5386451   7.5525959   8.1099538
  35.5198802   7.5021161   9.0664228  35.2912003   7.4793272   8.3169334
   0.6021560  -2.4133890 -24.8303075   0.5834739  -2.7314476 -25.6424831
  -0.2380411  -2.2635708 -24.6493023   0.4752819  -2.4382416 -24.9235444
  -9.4531751  15.5581374   6.6730234  -8.9098466  15.7488071   7.3284460
  -9.8819199  14.8546238   6.9600532  -9.4362487  15.4823798   6.8122430
  28.6386677 -12.0088510  45.2574503  28.8996528 -12.8298368  45.3953222
  28.4559704 -11.9921803  44.4045240  28.6502324 -12.1276649  45.1518220
   6.8282770  24.5051161  14.4581485   7.5496343  24.0196215  14.5294104
   6.6738818  24.5183096  13.5995871   6.9120290  24.4353475  14.3418481
 -52.8775801  19.0079963 -44.5019703 -52.7749449  19.3527116 -45.2968142
 -53.3589646  19.6017793 -44.0814584 -52.9335292  19.1466318 -44.5572668
 -10.9625782 -11.6476495  18.3019350 -11.6177813 -11.0717468  18.2883496
 -10.8087627 -11.7633313  19.1528746 -11.0366435 -11.5796654  18.4256295
  43.3012526  23.2490684  27.0875461  42.4869386  23.5189470  26.9288083
  43.3263282  22.4526437  26.7322737  43.1846658  23.1712867  27.0116162
  25.9781794  20.9494927  22.1553197  26.7842819  20.6917239  21.9434385
  25.7578472  21.4886485  21.5057782  26.0647098  20.9910594  22.0280698
 -17.7553967   2.4834410  23.6571174 -17.3320648   2.3701125  24.4114955
 -17.1821272   2.9179601  23.1634629 -17.6081781   2.5308874  23.6956317
 -30.8331178  30.6738442  -6.5750664 -30.1443183  30.9819971  -6.1371891
 -31.4499812  30.6013450  -5.9623977 -30.8224914  30.7086551  -6.4198791
  24.2695964  20.7194569  54.4467497  24.8628055  21.0208753  53.8824896
  23.7104205  20.2801004  53.9413512  24.2746238  20.6990806  54.2887391
  37.5847679 -14.8960046  13.0227846  37.1978163 -15.4549492  12.4759857
  36.9158350 -14.4866241  13.4049833  37.4287920 -14.9180983  12.9984698
 -17.2140964  -6.0805728  44.8618837 -16.4234833  -5.9639925  45.2118545
 -17.0461998  -6.2171454  44.0167221 -17.0725048  -6.0835261  44.7887338
   9.7246736  23.5380779  45.5866098   9.3666763  24.2697061  45.2740437
  10.5784902  23.7168641  45.5997373   9.7979163  23.6725649  45.5423765
  22.1756623   3.1527574  55.5814364  21.5652054   2.7401690  55.1142610
  22.9192463   2.7733027  55.3279874  22.1953279   3.0357563  55.4749853
 -19.9583792  53.3600696 -25.3050247 -19.4387610  53.8036585 -24.7624703
 -19.4092904  53.0522610 -25.9090900 -19.8005092  53.3801272 -25.3141111
   6.4466759  12.7809348   9.6104899   6.7763548  11.9893682   9.7713425
   6.6823510  13.2471650  10.3092218   6.5301903  12.7328759   9.7374683
 -37.8469252 -51.6909676  14.6849619 -37.5952834 -52.5168677  14.5596427
 -38.5985819 -51.6366063  14.2454205 -37.9207877 -51.8049398  14.6015204
 -53.2465137  19.5735081  19.5156382 -52.5761221  19.1393688  19.1645857
 -52.8968747  20.3386248  19.7469141 -53.0958341  19.6224003  19.4979447
 -46.3987337  22.8390337  51.0684163 -46.5395499  22.8679117  50.2079070
 -45.8683813  22.1533019  51.1665878 -46.3411912  22.7420029  50.9558033
 -13.5692436  27.6386334  31.9671545 -13.6763911  28.2077529  32.6196589
 -12.7193324  27.4447136  32.0015868 -13.4595221  27.6940581  32.0686292
   1.5088995  -4.7024388  18.1593731   1.9861112  -4.8578028  17.4457412
   0.8551633  -4.2054566  17.8647935   1.4828232  -4.6519748  18.0104395
   7.4406277  -0.5031509  12.8598218   6.7873296   0.0484823  13.0331479
   7.2388280  -1.2128466  13.3253843   7.3143121  -0.5265000  12.9541988
  -8.0024211  56.9833013   1.7290543  -8.6432577  57.3908460   1.2996648
  -7.2916644  57.4458589   1.5241034  -7.9920925  57.1118333   1.6353491
 -16.4339297  -0.5472476  -9.0932984 -15.8356075  -0.9592472  -9.5764200
 -16.6489799  -1.1363659  -8.4868063 -16.3773125  -0.6951333  -9.0750740
  18.3226123  25.8383871   0.7887104  19.1563354  25.8316532   1.0456148
  18.2838090  25.1946398   0.2011534  18.4400383  25.7422976   0.7398662
 -18.8362963  38.5449087   6.3903341 -19.0082894  39.1528416   6.9919781
 -19.0322560  37.7963224   6.7932705 -18.8906505  38.5241313   6.5387313
  34.2508752  42.8773285  53.7865706  33.4740749  42.9274804  53.3926091
  34.2495092  43.5595421  54.3303741  34.1359240  42.9855140  53.8087053
  13.5907052 -33.0364121   2.0964752  14.3634334 -33.2400900   1.7464095
  13.3340383 -32.3409416   1.6364942  13.6669381 -32.9637642   1.9768146
 -19.3731817  24.4994451  37.1140848 -20.0984714  24.5585119  36.6328308
 -19.1534814  25.3315827  37.2569773 -19.4478676  24.6310943  37.0641018
 -20.8975870  45.1669753 -12.5983355 -21.0490821  44.3714910 -12.2736918
 -20.3888508  45.5408031 -11.9961895 -20.8448151  45.1046880 -12.4614296
  -6.0952993  44.7850784   7.2000967  -6.2252011  45.2918317   7.8982845
  -6.4909673  44.0372295   7.4129544  -6.1729368  44.7494636   7.3346769
  18.2642350  23.7630792  32.5120384  18.4091692  22.9047760  32.4533083
  17.4160565  23.8412756  32.3233109  18.1603514  23.6478414  32.4754838
 -27.2008321  31.6408764  12.2872471 -26.5605065  31.7979993  12.8585921
 -27.6905178  32.3619575  12.3245236 -27.1785794  31.7706053  12.3771531
   6.8563318  27.9404296   6.3430797   6.7232376  27.0849531   6.4507154
   7.6541179  28.0669818   6.6727181   6.9545205  27.8327524   6.4076741
  18.6793602 -33.9908426  56.9781523  18.8436158 -34.7948289  57.2744047
  17.8361706 -33.8708265  57.1672736  18.5790677 -34.0918791  57.0498520
  -2.5027371  12.1820950 -18.0735896  -2.8619562  12.9697245 -17.9652336
  -3.1707587  11.6863898 -18.3365783  -2.6544817  12.2252182 -18.0964321
 -18.4753179   0.7874062  10.3790608 -18.9754000   0.6074985   9.6871861
 -17.8509841   1.3019967  10.0526510 -18.4569633   0.8368457  10.2286392
  -3.4662611  34.3938494  30.2095988  -3.0569447  33.9692393  29.5667101
  -2.8173362  34.7820149  30.6447580  -3.3099370  34.3884658  30.1789129
  41.8613600  35.5795435   3.5932758  41.3431036  36.2128406   3.2908116
  41.3132019  35.0527929   4.0212900  41.7038286  35.5952826   3.6118221
  40.0576324  12.6094620  18.9643504  40.6056476  12.3744732  19.6012171
  39.4078657  13.0074119  19.3892959  40.0426016  12.6335347  19.1212020
   9.6254332  19.2917173   1.5475907  10.4540339  19.0411492   1.4390735
   9.6560587  19.8006026   2.2555719   9.7523586  19.3298761   1.6361439
 -47.6754558  17.1601049  12.7016970 -47.7269574  17.9219129  12.2796356
 -48.4125677  16.7509645  12.4771757 -47.7919503  17.2122012  12.6061834
 -25.2788711  35.7697910  18.9317148 -25.6223994  34.9843103  18.7700119
 -25.7087410  36.0395420  19.6413526 -25.3931180  35.6936071  19.0126561
 -14.2691004  40.1501204  17.5735917 -14.9217457  39.6158698  17.3505000
 -13.5659569  39.6340070  17.5547333 -14.2616408  39.9949600  17.5378507
  18.6168556  23.3975012   7.1654207  19.1361654  22.8412731   7.5921141
  18.4119666  22.9673230   6.4345947  18.6633020  23.2517887   7.1204941
 -12.3087417  13.1662187 -19.4338118 -12.6302233  13.9394062 -19.6787001
 -13.0212477  12.6806992 -19.3005991 -12.4614830  13.2087132 -19.4503086
  21.9922252  12.7733074  57.7863156  21.7551622  12.0175841  57.4204975
  21.3371426  12.9501540  58.3347056  21.8604369  12.6877954  57.8132852
   5.7163539  19.7894615  37.4013722   5.6938074  20.6514226  37.5342415
   4.9904687  19.6334744  36.9432258   5.6057951  19.8937484  37.3533221
  -0.1836416   7.1620724  17.9414930  -0.7930471   7.1661135  17.3171949
   0.3975175   7.7509383  17.6646709  -0.1878142   7.2496570  17.8083790
  28.2823922 -17.7900291  34.7205168  27.4701511 -18.0718643  34.5722846
  28.2440954 -16.9410120  34.5234309  28.1567502 -17.7062446  34.6695062
  30.6119069  30.8052337   6.6439608  30.4824281  30.2079922   6.0213234
  30.9746610  31.4729960   6.2154256  30.6463665  30.8156511   6.4886810
   2.3431241   3.2295352  39.1396398   2.1590035   3.4875170  38.3268148
   2.8695287   2.5436733  39.0228871   2.3936865   3.1663285  39.0023220
  -5.7341329  29.2108261  63.0398614  -6.3871204  29.4896841  62.5329245
  -5.8890741  28.3562356  63.1223717  -5.8534806  29.1257785  62.9771648
  19.6559335   6.1188607  17.7162357  18.9506387   6.2032787  17.2097061
  20.3084903   6.0236604  17.1450563  19.6481430   6.1172680  17.5570359
  42.5922371  37.2325813  -2.3571509  43.4320983  37.4638793  -2.3094658
  42.6189159  36.3605825  -2.3503801  42.7202429  37.1379366  -2.3491066
  49.2366115  33.9604190 -21.2434859  48.7274584  33.2522236 -21.2625100
  49.0759779  34.3075439 -20.4593682  49.1376702  33.9070815 -21.1304658
  22.0805255 -11.5577890  48.9929343  21.2568988 -11.2711172  49.0173839
  22.0319913 -12.3520182  49.3506829  21.9516894 -11.6327657  49.0493929
 -26.3335041  25.9596424  14.0022880 -25.6294914  25.5973434  14.3686828
 -26.0208579  26.6834795  13.6288557 -26.1833226  26.0130490  14.0012484
  20.2353976  27.7468552 -13.4652358  20.9123150  27.8214861 -14.0105363
  19.9409166  28.5646944 -13.3906734  20.2918914  27.8786915 -13.5347735
  48.2194353  24.6453082  -6.2420448  47.7446308  25.2414721  -5.8174404
  49.0146878  24.7302206  -5.8934721  48.2667721  24.7459172  -6.1278306
  36.5130519   6.9884699  -9.0927068  35.7654793   7.4317043  -9.1689824
  37.0523925   7.3999731  -9.6412653  36.4822917   7.1147323  -9.1850077
  20.9994786   8.2287710   3.6494053  21.6486511   8.5786569   4.1155538
  21.3989909   7.9290723   2.9340661  21.1543909   8.2361847   3.6125947
  -1.7122830  68.8288420   0.0624948  -1.4822974  68.2526049   0.6758438
  -2.4450108  68.4923302  -0.2706857  -1.7865484  68.6940102   0.1038815
 -27.0475538  -0.8961318 -30.1940180 -27.0658504  -0.0253322 -30.2441468
 -26.6361635  -1.0496043 -29.4401323 -26.9894857  -0.7901678 -30.0900586
  16.6915279  45.5925232  -0.9565810  16.8122799  44.7288191  -0.9805350
  16.1725622  45.7461485  -1.6408422  16.6327035  45.4876299  -1.0611990
 -38.4045154   0.7787465 -14.7303761 -37.6733555   1.1925326 -14.4951618
 -38.1140509   0.0776210 -15.1607166 -38.2536004   0.7363006 -14.7592003
  13.1846069  59.2532723  37.0885262  12.7148334  58.5729314  36.8099787
  12.6777945  59.9401147  36.9081703  13.0403451  59.2542327  37.0207367
  71.4526851  46.4762694  15.2085117  71.6057671  47.3327781  15.1444930
  70.8070219  46.4264198  15.7931257  71.3799207  46.5954296  15.2854143
  -7.4479751   0.8589153  56.7024855  -8.0827373   0.6036463  56.1611407
  -6.7401112   0.4521879  56.3948476  -7.4371765   0.7611248  56.5770733
   6.3038192  41.3399379  -8.3638516   6.1371538  41.1121426  -9.1893645
   6.4169232  42.2038661  -8.4082931   6.2959071  41.4339078  -8.4923618
  17.3018249  27.4461885   7.1845385  17.2423992  28.2416978   7.5377708
  17.2979494  27.6020837   6.3261555  17.2924740  27.5867306   7.1099173
   3.5541902  79.0970965  15.7908834   3.2007306  79.7634805  16.2292191
   3.5992378  79.3917665  14.9709567   3.5086314  79.2390640  15.7345146
  32.9276076  38.2486439   1.6515996  32.4478596  37.9459750   2.3144517
  33.7455673  38.0549172   1.8851619  32.9775684  38.1753160   1.7840185
  31.7335654 -26.4325647  22.1303162  32.1137761 -26.9405346  22.7291033
  31.1438615 -25.9815220  22.5885185  31.7026189 -26.4409740  22.2864553
   5.1950219  18.4243188  30.0866129   5.1890530  17.8971854  30.7817635
   6.0398384  18.6146132  29.9807235   5.3189370  18.3745607  30.1736589
 -22.5938508  14.1486297  17.8986801 -22.7519021  14.0553583  17.0457676
 -22.5120852  15.0114097  17.9990026 -22.6051198  14.2623020  17.7875070
 -22.0675034  42.2887257  11.5796874 -22.5409791  42.0311646  10.8936680
 -21.3697079  41.7656305  11.5553470 -22.0343667  42.1734067  11.4747526
  53.5849557  29.0562762  14.4739107  54.0971279  29.6690866  14.1227946
  53.0943748  29.5001241  15.0426540  53.5881452  29.2123664  14.5060587
 -24.3471313  35.5220458  -5.3256483 -24.0456130  36.1462341  -5.8553796
 -24.2795794  34.7960853  -5.8047700 -24.2926120  35.5070120  -5.4746767
 -30.0337986  -0.3511677   2.0556738 -29.8617195   0.2313872   1.4294485
 -30.7912653  -0.7040832   1.8050059 -30.1202724  -0.3172452   1.9261386
   4.4486127  35.1101629   7.5019234   5.1550650  34.8494389   7.0613695
   4.2328231  35.8626530   7.1167832   4.5210937  35.1828069   7.3799514
 -17.8071415 -38.3655905  -7.1225591 -18.6449152 -38.4810726  -7.3368919
 -17.8269169 -38.2841675  -6.2541589 -17.9338192 -38.3706217  -7.0259398
 -25.9797747  28.1172623 -17.2899547 -25.9643586  27.4542476 -17.8567998
 -25.2764761  28.5868673 -17.5043885 -25.8736057  28.0886917 -17.4053657
  55.7956400  14.6732871  49.5374219  55.6951116  13.8361610  49.7615944
  56.2559641  14.6336142  48.7973765  55.8487893  14.5437658  49.4612169
   7.6924063 -18.4997607  28.5821288   7.4239477 -18.1148424  27.8466647
   8.2595762 -17.9280291  28.9176593   7.7365321 -18.3584438  28.5230504
  21.1082346  -9.7584658  32.4511596  21.9302235 -10.0058198  32.2953080
  21.1724587  -9.2789850  33.1771850  21.2391465  -9.7241759  32.5353860
  12.0519289  38.5339178  33.9162585  11.3725838  38.5858000  34.4611787
  12.4864510  39.2768903  34.0588136  12.0157635  38.6513342  34.0178128
  11.8454857 -32.1216167  37.7504215  12.3000892 -32.8660410  37.7679604
  12.1742796 -31.6647220  38.4169659  11.9612096 -32.1640907  37.8514747
  -9.8543957 -11.6124743  -5.1403942 -10.1429040 -10.9714380  -4.6236980
 -10.1541270 -12.3361742  -4.7562598  -9.9412908 -11.6246854  -5.0073229
  39.9673466 -10.5964588  13.4166708  39.9817737  -9.9212546  13.9689667
  40.3593154 -11.2352189  13.8633087  40.0273797 -10.5910752  13.5642339
  19.0726592  47.4401670 -18.5727378  18.8326169  48.0267950 -17.9732491
  19.8762634  47.6942537 -18.7981261  19.1559089  47.5643579 -18.5174755
  28.9561169  28.5335327 -12.3944854  28.5918266  29.2629856 -12.0841136
  28.2776437  28.0815666 -12.7051948  28.8020792  28.5745232 -12.3945353
 -30.2195169 -21.5578537  -9.3340229 -29.4648508 -21.7803248  -9.7110179
 -30.1775853 -20.6875963  -9.2889310 -30.1018430 -21.4621623  -9.3830519
  15.2357092  46.4445259  10.2362311  14.5612962  46.9976827  10.2182224
  15.5731250  46.5583065  11.0326883  15.1859278  46.5430463  10.3512240
  26.1250035  13.3651631  27.8056620  26.9082746  12.9831966  27.7640984
  26.0754164  13.6421468  28.6314711  26.2333838  13.3496550  27.9215112
  44.2355752  41.5077411 -34.4595677  44.0964575  40.8291953 -34.9900028
  44.6788948  42.0701379 -34.9578818  44.2805121  41.4905835 -34.6115351
  35.8585725   9.6998181 -35.4545259  36.1666841  10.4567630 -35.1491717
  35.2950231   9.4446224 -34.8393618  35.8208391   9.7739368 -35.3185464
   9.3000725  29.0923232   2.8951440   8.4632409  29.0722803   3.1410114
   9.5540707  28.2605247   2.9639610   9.2139760  28.9664886   2.9416294
  -1.1564773  -5.8000990  12.0350518  -1.4520218  -4.9876773  11.9177324
  -0.4072510  -5.8123506  11.5882304  -1.0894591  -5.6818974  11.9517166
  48.4017297  26.4256027   5.9840633  48.7634611  27.2184475   5.9429895
  48.5104450  26.1934825   6.8179942  48.4712244  26.5084333   6.1011847
  -3.7559101 -10.7059355 -11.7915675  -3.2457311 -11.3514904 -12.0815946
  -4.1555496 -11.0555485 -11.0993258  -3.7395811 -10.8529423 -11.7321521
  32.9123965  41.7238332 -15.8566356  33.2771293  41.5052654 -15.0948366
  32.5012037  42.4726986 -15.6798289  32.9055334  41.8021691 -15.7179842
  -2.8453958 -14.8602312  20.6166184  -3.0204137 -14.2557827  20.0123418
  -2.9169649 -15.6126542  20.1808696  -2.8818218 -14.8820901  20.4629852
  15.1606617  40.0722467  26.5805091  15.6110514  39.7200998  25.9215090
  14.3304235  40.0033220  26.3214850  15.1045502  40.0100457  26.4448980
 -14.3567741  35.9423788  62.3886492 -15.1685498  35.7450267  62.6400689
 -14.0001827  36.2930869  63.1034820 -14.4240142  35.9650327  62.5313846
   6.9533024  27.0740712  38.7342669   6.4527149  27.7695603  38.5704178
   7.5534566  27.0996667  38.1015747   6.9680105  27.1805903  38.6166013
  30.0868640 -15.2302144  38.5555469  30.9273592 -14.9999291  38.5964871
  30.1103441 -16.1011414  38.6010922  30.2144910 -15.3248504  38.5683226
   2.8150501  40.2249858   0.7728770   2.5042291  41.0022554   1.0186041
   2.5525831  40.1517987  -0.0559139   2.7303636  40.3289933   0.6867464
  20.2192761  -7.5273167   5.9520481  20.7661273  -7.3272109   5.3023936
  19.8403271  -8.2650399   5.6813055  20.2440787  -7.6067338   5.8160865
  19.9178754  35.0844818   4.4877229  19.9359857  34.2233973   4.3486363
  19.0736526  35.2880584   4.4041521  19.7958415  34.9873543   4.4548318
   5.8213768  26.6630434  17.6079759   6.6469153  26.4949475  17.3813276
   5.7741806  27.5337467  17.5799074   5.9363540  26.7668330  17.5703490
   7.3147914   0.9402486  20.8877096   7.0339901   1.6937291  21.2261729
   8.1799096   1.0444604  20.8446990   7.4011070   1.0669474  20.9313541
  16.2042082  32.6376642  20.2533973  15.6420766  32.2812676  20.8174267
  15.6907526  32.9447427  19.6184125  16.0453218  32.6303789  20.2429157
  15.8496228 -28.8001531  -9.0467600  16.6265148 -29.0805812  -9.3277198
  15.9403197 -27.9327253  -9.0247895  15.9777835 -28.7134411  -9.0850181
  23.7496648  11.6712933  -9.2046106  22.9253904  11.9364521  -9.3113915
  23.9908664  11.4236002 -10.0056159  23.6635329  11.6738733  -9.3387093
   4.5545923   7.4698120  36.1698658   4.7520415   6.6678461  35.8887893
   3.7053382   7.5482648  35.9861481   4.4583073   7.3629342  36.1012061
  38.3236772  24.6226774  37.6925547  37.8874355  24.2644040  38.3577411
  38.9348981  24.0291648  37.5046947  38.3495252  24.4820790  37.7630657
  44.6346496  34.1526088  40.5541264  44.4927835  34.1948404  41.4139113
  45.1920570  34.8071590  40.4058011  44.6960336  34.2555378  40.6592236
  47.1001474  18.8988585  78.2883170  47.1159259  18.3592682  77.6029464
  46.2727697  19.1744598  78.3134067  46.9802575  18.8598619  78.1907799
 -14.7756359  30.1831956  46.0757269 -14.3864231  30.6215547  45.4295889
 -14.6019230  30.6633781  46.7831081 -14.6924801  30.3188831  46.0847738
 -18.5087944  38.4329944  75.2016712 -17.9723923  38.1662401  75.8359065
 -18.0064950  38.4182845  74.4884963 -18.3553568  38.3914163  75.1900102
  58.9219259   5.8891311  -1.1780737  58.2005744   5.8740627  -0.6876000
  59.4880378   6.3458311  -0.6963247  58.8989938   5.9543692  -1.0344564
  30.5990704  18.0573194  19.1030301  31.4603907  17.9600912  19.0039671
  30.2832818  17.9165915  18.3020227  30.6796567  18.0221684  18.9700711
  -2.1681992  28.0907623   8.5506842  -2.0855766  28.2175478   9.4098923
  -1.6781598  28.7227673   8.2020147  -2.0836053  28.2028513   8.6261013
  21.8303901 -20.1558219  -5.5913587  22.5630694 -19.6850851  -5.6435834
  21.3307906 -19.6974805  -5.0423021  21.8648208 -20.0185779  -5.5179664
  84.0198022 -35.7999349  35.7484908  83.3986740 -36.3790617  35.5486121
  84.5835724 -36.2612658  36.2285705  84.0113292 -35.9536320  35.7898823
   9.0524136   1.8914329  41.3921872   9.2886984   1.5151154  40.6413915
   8.7477026   2.6704064  41.1442134   9.0423057   1.9509135  41.2446484
  23.8965421  41.3811300  45.6534984  23.0533936  41.1651181  45.5936747
  24.1979338  41.2573414  44.8441907  23.8165135  41.3309345  45.5251098
  24.5296607  14.4805849  51.0703410  24.9247895  15.1622161  50.6956524
  24.7917012  14.5229694  51.9014113  24.6267381  14.5875369  51.1377580
  22.6697399   4.2945924  38.8179040  23.0812596   4.3045555  38.0486890
  22.1170464   4.9674368  38.7635909  22.6488856   4.3954572  38.6962519
  -9.7655483   2.8806233  38.5032806 -10.1955129   3.3380290  37.8974341
  -9.1857430   3.4514352  38.8181443  -9.7434137   3.0325122  38.4602965
  39.2561353  53.5383466  58.0804595  39.0939481  53.3719631  58.9213824
  38.4614521  53.6330289  57.7331076  39.1147858  53.5277548  58.1533701
   5.3734673   8.7435887  22.8662015   4.6129297   8.8283804  22.4472357
   5.8097347   9.4668484  22.6477850   5.3255659   8.8629546  22.7720470
  39.2834223  27.8883519  22.1577821  39.9918799  28.0368878  21.6707868
  39.2753217  28.5574692  22.7175642  39.3868795  28.0091362  22.1685342
 -18.2681858  31.9549897  51.8570836 -18.4582231  32.7898351  52.0245903
 -17.6153359  32.0049186  51.2805130 -18.1998189  32.0856891  51.7966564
 -11.7377295  17.3772939  -2.9939382 -11.9816017  16.7772733  -3.5784389
 -12.2109826  18.0778189  -3.2094279 -11.8436637  17.3921405  -3.1121132
   9.3803705  37.7581368   7.9033522   8.9634050  38.3791246   8.3524105
   9.4584726  38.1000532   7.1045200   9.3303134  37.9003776   7.8516834
 -14.0406438 -33.4878397  25.1888369 -14.2144873 -32.8013133  25.6983460
 -14.7010108 -34.0348995  25.3493997 -14.1638739 -33.4672376  25.2878203
   7.2752345  29.6451941  10.0602924   6.4847085  29.9327579   9.8289586
   7.7502154  30.3747435  10.1176533   7.2286220  29.7954427  10.0345930
 -34.6257820 -23.7223398  19.7282319 -34.8729273 -24.0971059  20.4763021
 -34.6820723 -22.8684713  19.8981716 -34.6706057 -23.6515665  19.8638409
 -18.4979038 -26.2273598  16.1642019 -18.1915425 -26.6828890  16.8422693
 -18.0646139 -26.5574891  15.4827225 -18.3886420 -26.3434178  16.1636979
 -12.3037023 -10.1986830  23.1483891 -11.9877534  -9.9303674  22.3807157
 -11.5915261 -10.4425320  23.5893905 -12.1518271 -10.1950688  23.1001329
  30.7823608  14.7712712  16.1913331  30.4377922  14.6284295  16.9800081
  30.6898362  15.6315861  16.0798114  30.7177931  14.8772568  16.2913626
   4.5409000  -7.1034932 -15.5538584   4.7558542  -7.8386995 -15.9714778
   4.7892984  -7.2546809 -14.7313136   4.6093467  -7.2344319 -15.4940426
 -22.4770773  17.6242371 -10.6193424 -22.9389765  17.9724096 -11.2724615
 -21.6721840  17.9348489 -10.7489831 -22.4264100  17.7215531 -10.7349721
  -9.5567630  49.1219179   7.0346401  -9.3635561  49.0400644   6.1878162
 -10.3118035  48.6923154   7.1152326  -9.6397574  49.0463653   6.9214519
  61.7836421  -5.6697809  -3.5674524  60.9531271  -5.6731297  -3.8346100
  61.8484574  -6.3970582  -3.0899524  61.6705325  -5.7777094  -3.5363805
 -21.3549491 -24.9277282  42.1399918 -20.7962736 -25.5461640  42.3979809
 -21.9682546 -25.3727592  41.7076224 -21.3630191 -25.0848242  42.1142323
  26.7664070  21.9967673 -37.8865404  26.5892772  21.5509337 -38.6152358
  27.6283059  21.9005621 -37.7915957  26.8675615  21.9166970 -37.9801585
   5.9783102  18.7384629  10.0226443   5.7386770  19.5693545   9.9071689
   6.8244460  18.7955660  10.2274195   6.0679031  18.8696380  10.0358357
  -6.5589116 -10.1367368  40.7075240  -6.7543148  -9.2891445  40.7749361
  -6.8381459 -10.4723284  41.4628689  -6.6290254 -10.0611037  40.8290621
  17.8863040  13.9508619  41.3166484  17.7655148  13.0868572  41.3233794
  17.1556091  14.2629523  41.6769595  17.7605223  13.8693328  41.3708681
  11.6922741   2.3937803  29.8065896  10.9228706   2.4135941  30.2174001
  11.9753216   1.5794514  29.9403508  11.6204293   2.2764140  29.8870341
   8.7738072  14.2606029   2.0643218   7.9599447  14.0209778   1.8609817
   8.6697425  15.0397767   2.4427373   8.6382104  14.3403054   2.0901840
   2.4453443 -18.4533167  22.7303210   1.8867392 -18.7973891  23.3053984
   2.8726326 -17.8508429  23.1946372   2.4259461 -18.4151455  22.8838609
  20.3944521  -4.3195027  -2.0869852  20.5358752  -3.7058874  -2.6908190
  19.7823005  -4.8254540  -2.4481269  20.3249158  -4.3035985  -2.2295320
  -2.1654832 -12.1404626  -1.3204781  -1.7797794 -11.5800555  -0.7742951
  -3.0049634 -11.9040240  -1.2979096  -2.2325153 -12.0227521  -1.2364618
  21.4925133  -8.0789679  53.0838501  21.5017031  -7.9382441  52.2228902
  20.7488139  -7.7049383  53.3449106  21.3840111  -8.0029282  52.9952326
  10.9592978  42.7758832   3.2354743  10.8836276  43.2858527   3.9392816
  11.7295449  42.3822805   3.3492098  11.0619011  42.7930730   3.3562422
  16.4928158   4.1947332  38.8654744  16.1414212   4.9727716  38.6857035
  17.2980951   4.2519951  38.5347392  16.5598639   4.3181243  38.7900622
   9.3552243   9.0823603 -12.3525980   9.0328597   9.3021953 -13.1329140
   9.5686480   8.2418560 -12.4482135   9.3391315   8.9906746 -12.4819911
  -4.0167975 -27.7975718  55.4827583  -3.4950174 -28.1442499  56.0899645
  -4.7209356 -27.5499893  55.9344572  -4.0437355 -27.8122103  55.6391804
  33.1762148   5.2601467  22.2425170  32.3144519   5.3955471  22.2555925
  33.5046923   5.9969520  22.5747217  33.0974375   5.3889894  22.2935220
  35.2188534  -1.1187914  66.9350878  35.4067029  -0.3162509  66.6491145
  35.9905409  -1.5256749  66.9259362  35.3605968  -1.0603447  66.8914918
 -17.9590510   8.8468232  18.6520456 -18.6914969   8.7722388  19.1201266
 -17.8341502   8.0428823  18.3370561 -18.0487979   8.7170469  18.6746604
  16.7942742  11.7827532   8.6500945  16.4158210  11.6647435   7.8729288
  16.2094716  11.4639267   9.2135615  16.6519814  11.7182235   8.6185268
  -7.4604681 -15.6330100   5.8353603  -7.4240500 -16.4428535   5.5129216
  -6.6228236 -15.3943001   5.8854477  -7.3313511 -15.7173782   5.7951284
   8.2986862 -45.2497079 -20.2662115   8.3005921 -45.8919132 -20.8567267
   8.9422897 -44.7243208 -20.5324492   8.3940413 -45.2669644 -20.3927715
 -35.3654457  23.8220168  16.3412361 -35.4244124  23.2978349  15.6463291
 -35.2282932  24.6099821  15.9927545 -35.3538961  23.8609831  16.1871061
  23.3166186  15.1162011  20.2973939  23.7957618  15.6693712  20.7723298
  22.6388663  15.6012192  20.0394235  23.2872800  15.2695629  20.3294441
  16.1035328 -25.2544691  18.5601293  16.0502532 -24.4201386  18.3107432
  15.9261357 -25.6984290  17.8303558  16.0694571 -25.1968033  18.4154872
  47.2590276  19.3560362  -6.9956594  46.3986702  19.4993839  -6.9762680
  47.5789273  19.9532312  -6.4459668  47.1791909  19.4654297  -6.9115940
 -11.1384926  -5.3696880  48.7983959 -11.2556923  -4.5967362  49.1856288
 -10.3466453  -5.3009465  48.4386850 -11.0388333  -5.2453525  48.8024615
  15.4287475  61.7181431   7.6755933  15.9943463  62.2773288   7.3170561
  15.2543499  62.0731061   8.4532348  15.4865360  61.8531817   7.7375036
  -4.2821190 -28.5799265  22.2808991  -3.4728206 -28.6975378  22.5847792
  -4.1782234 -28.5814849  21.4146758  -4.1472214 -28.5975303  22.1978294
 -13.8354185 -15.7805748  -5.6997925 -13.0177346 -15.6729260  -5.9842996
 -14.0316450 -15.0090797  -5.3428192 -13.7436164 -15.6507071  -5.6890877
  16.3411203 -11.4031120  37.9736013  16.3364847 -11.0414108  38.7675095
  16.6403471 -10.7651057  37.4592563  16.3846375 -11.2554346  38.0148985
  -0.0994093  21.7585111  -1.7495565  -0.6407179  21.1832588  -2.1199744
   0.4847342  21.9234610  -2.3762203  -0.0930817  21.6979010  -1.8968460
  16.1502670   9.0470005   5.9647511  16.2096540   9.2035684   5.1085390
  16.9712869   8.8657152   6.1975634  16.2803212   9.0433492   5.8726621
  29.3374281   9.6208921   5.4863574  29.3291609  10.4914250   5.4294035
  30.1561289   9.4090581   5.2718932  29.4571458   9.7181955   5.4462634
  26.4709380  11.6993417  11.2929747  25.6225718  11.6359770  11.4863633
  26.7747670  10.8942384  11.4366279  26.3904987  11.5710511  11.3427627
   4.7387384 -20.4941667  29.0045414   4.7227345 -19.6621301  29.2664544
   5.1276116 -20.9098900  29.6656703   4.7938189 -20.4326687  29.1408937
   4.9662559  44.6326730 -52.4873167   5.6363736  44.2725323 -52.9143769
   5.2128293  44.5969377 -51.6512162   5.1016701  44.5741940 -52.4268930
  19.9933383  -5.6147292  49.2635208  19.3757115  -5.1342790  49.6493242
  19.5396557  -6.1974909  48.7990853  19.8350838  -5.6298427  49.2519052
   0.0100326  -5.0010290  -6.2310618   0.0196184  -5.8339595  -5.9716888
  -0.6584020  -4.9681498  -6.7907526  -0.0872930  -5.1192130  -6.2754249
 -17.8175573 -24.3688236  -8.6665165 -17.8861725 -23.5175398  -8.4883385
 -18.0002702 -24.7531822  -7.9049235 -17.8546836 -24.2998491  -8.5276930
   9.3994888 -49.1425563  41.9872526   9.1357465 -48.4113549  41.5911163
   8.6552442 -49.5679991  42.1492339   9.2505884 -49.0973895  41.9526631
   0.1772030  12.4559989  38.8683879   0.2433501  13.2027944  39.3145499
  -0.0315348  12.7164218  38.0623185   0.1561394  12.6047858  38.8152222
   2.6633059  38.3000901  43.7200484   3.0237930  38.7522775  44.3732828
   2.8431503  38.7804481  43.0143206   2.7431240  38.4378463  43.7122940
 -28.7927139 -10.0253437  44.4141612 -28.8326918 -10.0724135  45.2844058
 -27.9596673  -9.8185162  44.2579712 -28.6755613 -10.0017442  44.5196418
 -21.1620269  38.9162067   4.7329733 -21.5651986  39.6219548   5.0500094
 -20.4155771  38.8866154   5.1836135 -21.1113177  39.0160890   4.8463749
 -17.2524688  43.4072175 -19.6242548 -17.2066461  44.0250722 -19.0100110
 -17.9387331  43.6476811 -20.1062902 -17.3470752  43.5340088 -19.6047249
  -7.7035720 -16.8078475 -19.4687369  -7.0376537 -16.2449029 -19.4967677
  -7.6499960 -17.2271293 -20.2319354  -7.5972879 -16.7866255 -19.5856178
  18.5907578  14.5182927  37.3259060  17.8874728  14.0494944  37.5421418
  18.6078350  15.1512538  37.9260794  18.4893908  14.5425429  37.4465065
 -28.2784706 -14.5380456  17.0682892 -28.5536390 -14.7956525  17.8550932
 -28.4346318 -13.6797029  17.0672497 -28.3421869 -14.4493045  17.1843628
  15.1994855  21.2732017  13.3096250  15.5454058  21.9781083  13.6898688
  15.1003163  20.7117647  13.9699987  15.2359357  21.2943951  13.4633456
  34.5434941   0.5554076  22.1832828  35.0119437   1.0365406  21.6263219
  34.2406096  -0.0954912  21.6875699  34.5679515   0.5303297  22.0277812
  18.7623698   2.8169978   2.0699269  18.1312500   2.5747505   2.6214189
  19.3611650   2.1881581   2.1544513  18.7575948   2.6883203   2.1638796
   2.8592912  -9.5239078  68.3559912   3.6776762  -9.4428488  68.0647611
   2.6120244 -10.3057189  68.0580479   2.9436571  -9.6274233  68.2689581
   8.4657056  26.4350970  64.5369705   8.8403015  25.7515027  64.1451590
   8.1893899  26.9269213  63.8714646   8.4802236  26.4067686  64.3807829
  18.5583862  19.2252081  29.6643874  18.0463393  19.9211584  29.7852201
  19.0921326  19.4726193  29.0201498  18.5615917  19.3645620  29.5870697
  28.7697132   9.4502376  -2.2743033  27.9705653   9.7944206  -2.2107403
  28.6972980   8.8839738  -2.9340312  28.6409653   9.4174317  -2.3623692
 -20.7401552  19.0848494  -4.0451914 -21.1482519  19.0434017  -4.8151776
 -21.3893731  19.0250927  -3.4654632 -20.8963424  19.0698994  -4.0732964
  11.5985707   3.0289061   6.2126019  12.3116563   3.4833724   6.4273316
  11.4948533   3.1991665   5.3632529  11.6885870   3.1211911   6.1188555
  42.9953423  -2.1654268 -43.9387495  42.2819601  -2.6213130 -44.1494464
  43.2143769  -2.4781664 -43.1543024  42.9223170  -2.2789687 -43.8539948
  -9.2595602  12.2925928   4.1909727  -8.9858654  11.9326269   3.4448794
 -10.0812270  12.5278696   4.0159071  -9.3405069  12.2741737   4.0548985
   4.5472690  11.5015670 -10.5055983   5.3288463  11.7439658 -10.8081200
   4.0495982  12.2063348 -10.6350803   4.5892079  11.6414831 -10.5694141
  11.7214768 -12.6142702  -0.7490818  11.1000542 -12.8885407  -0.2015883
  11.2751694 -12.3535011  -1.4518966  11.5637511 -12.6162647  -0.7720260
  11.2964290 -12.8447877  23.2176796  10.7464988 -12.4240752  22.6869090
  11.7538129 -12.2021083  23.5903760  11.2827580 -12.6877028  23.1943288
  14.3008975  22.0730384  -1.4692974  13.7486843  21.4004646  -1.4072929
  14.0371072  22.4893408  -2.1891909  14.1803570  22.0351818  -1.5664812
  33.3474433  13.6373937  -2.4632882  32.6245665  13.1629394  -2.3471768
  33.0526717  14.3758073  -2.8224463  33.1971157  13.6763859  -2.4991912
   2.4681186  -3.0537050  -6.6657483   3.1489451  -3.4756722  -7.0115205
   1.7889985  -3.5654272  -6.8608789   2.4683707  -3.1916302  -6.7456508
  54.7488842  18.6771751  47.1098513  53.9426979  18.4003748  47.2958209
  54.6182990  19.3107720  46.5244950  54.6105038  18.7298813  47.0508536
  44.3944986  -4.8769952  40.4691434  44.8139617  -4.1120663  40.4777479
  45.0393480  -5.4646126  40.4729524  44.5517195  -4.8508026  40.4709771
  40.4154368  -7.0534764 -13.1142227  40.7606650  -7.8110628 -13.3750288
  39.5974782  -7.0861293 -13.4159132  40.3456048  -7.1702110 -13.1973151
 -12.1999277  -1.2152556  12.3250923 -13.0451087  -1.0930868  12.1465333
 -11.7977509  -0.6182265  11.8321930 -12.2653685  -1.1090152  12.2259041
   2.3512192 -11.9631577   9.4409647   2.5153107 -11.5556433  10.1947190
   2.0168860 -12.7293569   9.6905636   2.3260710 -12.0161428   9.5891807
  59.9991577   9.9367086  40.8565736  60.2827439  10.2952398  41.5996575
  60.0517797  10.5898169  40.2805353  60.0488226  10.0861486  40.8812497
  25.6991409 -22.6797552  30.6534716  25.8874979 -23.4716907  30.9673175
  24.9486991 -22.4755886  31.0488103  25.6161094 -22.7665808  30.7582328
  32.4858159   8.6957068  18.7290730  32.1048126   9.4516431  18.9401094
  31.8695790   8.2744408  18.2774907  32.3385030   8.7451445  18.6935394
  45.2731812 -24.3514218  13.1920174  45.5126924 -23.6292002  12.7652038
  44.9433867 -24.8604501  12.5649088  45.2598445 -24.3199287  13.0363314
  37.0594573  -1.0383056  33.5604639  37.5493978  -0.9137750  34.2715124
  36.3235498  -0.6054883  33.7400433  37.0231229  -0.9559739  33.6920280
  23.9840458 -23.0655712  -6.8020541  24.8132663 -23.3117166  -6.6882767
  23.6214164 -23.7476056  -7.2076014  24.0529709 -23.2026825  -6.8451545
 -31.7103364  22.0723263  33.7151709 -31.1743732  22.3659209  33.0925273
 -31.2431878  22.1612018  34.4466167 -31.5621561  22.1288250  33.7312433
   6.9893336  47.7174493  44.8474194   7.0085842  47.8379481  45.7112765
   6.5723175  46.9566477  44.7556696   6.9305754  47.6228634  44.9614756
  36.4788503 -32.3616030  23.4624984  35.6640174 -32.5645753  23.6991188
  36.5620329 -31.5283785  23.7073596  36.3707705 -32.2685018  23.5336232
  21.9423773   4.0438638  21.6410029  21.6313048   4.8502733  21.7596505
  22.4695995   4.1268553  20.9508662  21.9743070   4.1752467  21.5565822
  25.2807661  21.9370022 -13.0521032  25.8631392  22.4685149 -12.6786392
  25.7740824  21.3790433 -13.5064822  25.4396676  21.9330956 -13.0640560
  57.2742167 -20.6848819  10.5898329  56.7697302 -20.7644028   9.8825075
  56.7152089 -20.7823944  11.2525101  57.1171167 -20.7110334  10.5832375
  58.2015882  -6.6112164   1.3115625  57.6429607  -6.7632630   1.9642161
  57.8381466  -7.0189732   0.6312801  58.0653796  -6.6939109   1.3074812
 -12.3883299 -46.4036860  44.7273784 -11.6675374 -45.9175902  44.6545181
 -13.0135683 -45.8193235  44.8968980 -12.3742146 -46.2455573  44.7416570
 -40.5263181   5.2779962   8.1530298 -40.3937789   4.9814601   7.3433143
 -40.9159963   6.0485023   8.0280868 -40.5643028   5.3480113   8.0149615
  -5.9646477   0.1840019  -3.5007565  -6.6728784  -0.3211567  -3.5668135
  -6.1069991   0.6425986  -2.7723578  -6.0902962   0.1771237  -3.4029150
 -25.6978969   1.3129335  16.9395206 -25.3854808   0.7117140  17.4891303
 -25.5230075   0.9813266  16.1517451 -25.6259118   1.1751358  16.9043386
  -6.0830508  28.7548795  -3.3550125  -6.5420302  28.4445592  -2.6810846
  -5.7717587  28.0362459  -3.7394634  -6.1048673  28.6028818  -3.3122508
 -22.9144954 -54.2071006  34.9694326 -22.8485030 -54.8426143  34.3753729
 -23.7695827 -54.1729181  35.1391286 -23.0310610 -54.2959296  34.9067453
 -17.4664950 -58.9183683  11.7748896 -18.2290225 -59.3240122  11.8979521
 -17.2909964 -59.0626329  10.9325551 -17.5532113 -58.9996011  11.6686383
  16.0770342  -2.3178349  46.3654180  16.4819272  -2.8828310  46.8926567
  15.9992932  -2.7566818  45.6154118  16.1253613  -2.4661232  46.3325106
   0.1105972  -0.1550751   0.1112561  -0.2983256  -0.1784688   0.2883747
  -0.7721525  -0.3685121  -0.2861804   0.2128950  -0.0710106   0.1377231
   0.2031076  -0.2434046   0.2193032   0.3265317   0.1818726  -0.3866248
   0.4644012   0.0382260  -0.3557354   0.4510935  -0.3086379   0.2558148
   0.5114195  -0.2485569   0.2077350  -0.1833193   0.1012135  -0.0883631
  -0.4451170   0.0806362  -0.0305238  -0.0834069  -0.1901375  -0.0492926
  -0.1459898   0.0113214  -0.1053316  -0.0949891  -0.0729517  -0.0278855
   0.8072153   0.6171094  -0.2661875   0.1257238  -0.1708518  -0.1704639
   0.3638855   0.1613411  -0.3766257  -0.0872877  -0.0717307  -0.2416591
  -0.1297130   0.2071807  -0.0675423  -0.0116538  -0.1196618  -0.1092329
   0.0625419  -0.3407603  -0.0832295  -0.4669697   0.8803111  -0.7725411
   0.0057992  -0.1578475  -0.0346679   0.2412469  -0.7474146   0.1669111
  -0.0683289   0.3894352   0.6331747  -0.4396494   0.9729973  -0.0931909
   0.2877545   0.4531012   0.3083745   0.0170110  -1.2902691  -0.1302824
   0.3817489   0.3971868   0.4044677  -0.2276397  -0.2771089  -0.4061149
  -0.1333338  -0.1849608   0.2451741   0.1576369  -0.0721188   0.1918854
  -0.2764236  -0.1425627   0.1991001  -0.2265678  -0.3223461   0.4292124
   0.0726253  -0.4240519   0.2444497   0.0380710  -0.0323617   0.7173101
   0.5499700   0.2431369  -0.1267437   0.5951544  -0.6346757   1.3117530
   0.3090297  -0.2568215  -0.2363564  -0.1756025   0.9652875   1.0407490
   0.0925211  -0.1397074   0.2406409  -0.2234715   0.1073803  -0.2526577
  -0.4342106  -0.0495654   0.0921299  -0.3206062  -0.1652994   0.0749461
   0.2224951  -0.3118001  -0.0434380  -0.1432650  -0.3180274   0.0830328
  -0.1092104   0.2219237  -0.5244651  -0.3225262   0.0215065   0.1552506
  -0.1070759   0.7414858   0.0464539  -0.4176710   0.0298151  -0.2293491
   0.1857726   0.0063483  -0.0275936  -0.1303553  -0.3311394   0.5551244
  -0.2709318  -1.1315049   0.0401480   0.0827403  -0.2371082   0.1930024
  -0.5266081  -0.6321742   0.3320604   0.3387500  -0.2840579   0.0791903
   0.2460548  -0.3717073  -0.1713268   0.2151067   0.0421469  -0.1665192
  -0.0628848   0.1265949  -0.1061145   0.0644066  -0.2761578  -0.0237549
  -0.1449935  -0.1371822   0.2295868  -0.0766149  -0.2746037  -0.2768408
  -0.5478989   0.2495754  -0.3635513  -0.0361842   0.3640598  -0.3264954
   0.3048562  -0.0246037  -0.2676859  -0.1982242  -0.4778438  -0.4677017
  -0.1285264  -0.3044601  -0.1279599  -0.1718286   0.8536357  -0.1220290
  -0.0051947   0.3833803  -0.2637798   0.1513124   0.0464485   0.0452718
   0.1341953  -0.2331700  -0.5056617  -0.3278875  -0.0185043  -0.0930466
  -0.2382547   0.4157653  -0.6000198  -0.4762308  -0.0405279   0.4445524
  -0.0083269  -0.4303115   0.4764840  -0.3636169   0.6550178  -0.0055710
  -0.6221535  -0.2341469   0.1012786   0.1323387  -0.2204504   0.4396621
   0.0934933  -0.0535727   0.3998350   0.0459407  -0.1803015   0.5538918
  -0.3673860  -0.1634633  -0.1469327   0.0405931  -0.0660368  -0.1782719
  -0.0959278   0.2846740  -0.3078072   0.4020049   0.9121944   0.1322927
   0.0649976  -0.1584113  -1.0242539  -0.1754550   0.0886460  -0.0385636
  -0.0879753  -0.0641629   0.3344166  -0.0686070   0.2801663  -0.3613128
   0.0489984   0.4747433  -0.7379423   0.5090443  -0.5290787  -0.6942304
  -0.1922345  -0.0921415   0.3957208  -0.1271440   0.0312993   0.4027708
  -0.2092735   0.0838072   0.0365315   0.4974432  -0.3649405   0.3128667
   0.2239707   0.2205376   0.1419037   0.3058987  -0.0762270   0.1226573
   0.3402288   0.1240717  -0.5059031   0.0260134  -0.2478641   0.0519942
   0.3298599  -0.2025887   0.2849614  -0.3547602   0.0379088   0.2062871
  -0.3566810  -0.6826185  -0.4513617   0.4078142   0.1632190   0.0899276
   0.5199007   0.2833980  -0.2386725   0.2876741   0.0983934   0.3271379
   0.7358591   0.2616401  -0.1582084   0.6474815   0.2875119  -0.4217023
   0.1098294  -0.0736800  -0.2434487   0.0684641   0.0059076  -0.2072585
   0.0182320   0.2365401   0.2451707   0.3263432  -0.1379523   0.5572239
  -0.5392793   0.2510216  -0.1441735   0.3648765   0.2323599   0.2556320
   0.2683656   0.4373793  -0.1448796  -0.3572958   0.2434788  -0.2617277
   0.0015152   0.1773486  -0.2106954   0.0111349   0.0912019  -0.2384607
  -0.3324876  -0.0064733  -0.6462926  -0.8231262   0.7920239  -0.2614779
  -0.3186552  -0.4249103   0.5890369   0.0564605  -0.4534414  -0.2284600
  -0.1091550  -0.0122457  -0.0150329   0.1960513  -0.2967586  -0.0544290
  -0.1845275  -0.2797604   0.4257567   0.1217685  -0.0025434   0.4760897
   0.3153580   0.3076106  -0.3017757  -0.4864525   0.5565672   0.6092180
   0.0218178   0.1946189   0.2470582  -0.2226245   0.0349367   0.0686644
   0.6829640   0.6823463   0.1194840  -0.0547476   0.0031366   0.1094106
   0.0481409   0.6288108   1.0908141  -0.0618643   0.5126465   0.0143612
  -0.5299128  -0.2279533   0.0234816  -0.4469801  -0.8057402   0.1342353
   0.0504032   0.1727196   0.2136975  -0.2009554  -0.1932797   0.5210936
  -0.4591206  -0.0118942   0.1434622   0.2251691   0.1784858   0.6243368
  -0.1967850  -0.3385761  -0.1030686   0.4711677   0.2418228  -0.0967256
  -0.0204543  -1.2195225  -0.1943623  -0.2094746   0.9116783   0.3186958
   0.0659869  -0.1033120  -0.2923056  -0.0324567  -0.0114528  -0.2045002
   0.1209594   0.1473727   0.2039458  -0.1437234  -0.1536172   0.2529696
   0.0979569   0.0925682   0.5522918   0.4724511   0.2641307  -0.0152905
   0.5133736  -0.0701118   0.4999627  -0.0952061   0.0577557  -0.5520036
  -0.4389988  -0.5872397  -0.3292862   0.1003313   0.4092298  -0.4268371
   0.0059381   0.8307811  -0.1712390   0.0061390   0.5873828   0.2187156
   0.6842769  -0.2419522   0.1729934   0.1616202   0.5986737   0.3246744
   0.0347931   0.1330178   0.1023964  -0.3419161   0.2404781  -0.2010658
   0.6444069   0.4312952  -0.0891080  -0.1755609  -0.0857922   0.2898869
  -0.8552173   0.4452485  -0.1641716  -0.2180616  -0.0471550  -0.2384975
  -0.0049351   0.0432570  -0.0273943  -0.0035886   0.0225868  -0.0816049
   0.2705062  -0.0005275  -0.5544456  -0.1376722  -0.1368047  -0.2495738
   0.0837905  -0.1142624  -0.1443364   0.0075782   0.3077950   0.0083168
  -0.2857440   0.1696225   0.1791029  -0.2461932  -0.0045739  -0.0728930
  -0.1239225   0.0127465  -0.1706841   0.3225163   0.1408712  -0.0807755
  -0.6213938  -0.3038156  -0.0628725   0.1821042   0.0845004   0.1904812
  -0.1586414   0.0598914   0.0161092   0.1443619  -0.2264353  -0.0827595
   0.3658279   0.2775181   0.4846572   0.2264988  -0.0353712  -0.0167743
  -0.0347628   0.0292584   0.3030412  -0.1899958  -0.0881008  -0.0924428
  -0.0025912  -0.0054532   0.1551640   0.2930257  -0.4154551   0.3604955
   0.0380006   0.0090344   0.1272787   0.0256512  -0.1977652   0.1574719
   0.3264927   0.0005775   0.1518966   0.2216184  -0.0992543  -0.5904388
   0.0613481  -0.1531102   0.1153694  -0.1381431  -0.2977677  -0.1514757
   0.1769131   0.2315719  -0.0260381   0.0112931  -0.0461666  -0.0938986
  -0.4615783  -0.5549443  -0.0684325  -0.1684299   0.9646315   0.0411768
   0.4777504   0.0624667  -0.2690033   0.4157713  -0.1573871   0.1185621
  -0.0839938  -0.4902354  -0.0024934  -0.9207578  -0.1189602   0.3259170
   0.5399585   0.1868547   0.4798628  -0.1507955   0.0249894  -0.4112704
   0.5358127   0.1836160   0.6776091   0.4539747   0.6324464  -0.0556450
   0.0988358   0.1271918  -0.4525253   0.0261659   0.2893255  -0.0112534
   0.1350628   0.4528251  -0.1514743  -0.0802564   0.0675166  -0.0307661
  -0.2387453  -0.0480281   0.0805659   0.1364934   0.0662620   0.2029294
   0.0962592  -0.0168665   0.1181751  -0.2162609   0.3163150  -0.0502378
   0.2237821  -0.1414133   0.1063729   0.1278114   0.0643233  -0.0351470
   0.0377005   0.1929020   0.1817821  -0.1498143  -0.1249965  -0.1577460
   0.0136289  -0.1585952   0.1188171   0.0584061  -0.1259480  -0.0995784
  -0.0608203   0.0578435   0.1183769  -0.1704120   0.1039938  -0.0512075
   0.1286075   0.0529101   0.0662782   0.2001608   0.0205921  -0.0882893
  -0.0225695   0.0198727  -0.0974285  -0.1557765   0.6081081  -1.1498493
  -0.4327659   0.1647495  -0.8893573   0.0000000   0.0000000   0.0000000
  -0.1802007  -0.3060854   0.1210987   0.6409585  -0.7029844  -0.0443710
   0.6351638  -0.4129660  -0.4875518   0.0000000   0.0000000   0.0000000
  -0.3236330  -0.0865454   0.0872639  -0.3901968  -0.1581138  -0.3000618
  -0.3939904  -0.3696046   0.3109183   0.0000000   0.0000000   0.0000000
   0.0553083   0.1234952  -0.1381013  -0.4521239   0.1121686  -0.6402867
  -0.2252738  -0.0788961   0.0727063   0.0000000   0.0000000   0.0000000
   0.1102166   0.1756587   0.0346971   0.7862980   0.2025708   0.1269511
  -0.4892713  -0.1516519  -0.0097663   0.0000000   0.0000000   0.0000000
  -0.0039569  -0.2938921   0.1111827  -0.8006662  -0.8342950  -0.3995818
   0.2596023   0.0000791   0.0912121   0.0000000   0.0000000   0.0000000
   0.2494987  -0.3879957  -0.2043359  -0.8043020   1.1586754   0.4551895
  -0.2859551  -0.0160535   0.3957919   0.0000000   0.0000000   0.0000000
  -0.0290922  -0.2781851   0.0253065   0.0846149   0.3531698  -0.1164829
   0.5080218   0.3603357   0.4571405   0.0000000   0.0000000   0.0000000
  -0.0382453  -0.3332701   0.0598327   0.7800058  -0.7389500   0.7050986
   0.2486468   0.3930989  -0.0035752   0.0000000   0.0000000   0.0000000
  -0.3871343  -0.0991444   0.0568144  -0.2484737  -0.7227848  -0.3044014
   0.8756870   0.2134886   0.4507899   0.0000000   0.0000000   0.0000000
   0.1186279  -0.0711692   0.0138653  -1.2578190   0.7637091   1.6167203
   0.8720783  -0.6568058  -1.1254918   0.0000000   0.0000000   0.0000000
  -0.1680255  -0.1794825   0.2553412   0.4535402  -0.8578565   0.8338163
  -0.8733021   0.6011149  -0.3372375   0.0000000   0.0000000   0.0000000
   0.1073836   0.2123097  -0.0407546  -0.9231044   0.6533187   0.3412371
  -0.1521338  -0.0074478  -0.0719498   0.0000000   0.0000000   0.0000000
   0.0270972   0.0305471  -0.1028520  -0.0063149  -0.8388313   0.8698753
  -0.1501171   0.7572321   0.5034966   0.0000000   0.0000000   0.0000000
   0.1723987  -0.1020083   0.1184582   0.5006735   0.1250026   0.0445275
   0.5481974  -0.1704547  -0.1899149   0.0000000   0.0000000   0.0000000
  -0.0512239   0.4142266   0.1284596   0.9336016   0.9433268   0.6784218
  -1.1114215  -0.2291035   0.3762293   0.0000000   0.0000000   0.0000000
   0.0474589   0.0559856  -0.1272520   0.0304416   0.1459964  -0.1653835
   0.2447625  -0.0948426  -0.2423520   0.0000000   0.0000000   0.0000000
  -0.2601675   0.1036739  -0.1020201   0.5056190  -0.6042697   0.9032214
  -0.2079985   0.1499672   0.8474095   0.0000000   0.0000000   0.0000000
  -0.2205693   0.1293476   0.0206829   0.1515446   0.3602835  -0.0108170
  -0.1638437   0.2747561   0.3808492   0.0000000   0.0000000   0.0000000
   0.0671079   0.4225522   0.0492621  -0.4743624   0.0613114  -1.1261785
   0.6908831   0.2313071   0.7347971   0.0000000   0.0000000   0.0000000
   0.2271872  -0.1380481   0.1380552  -0.0801237   0.2941962   0.2787038
   0.8259495   0.0235535   0.4738923   0.0000000   0.0000000   0.0000000
   0.2527439   0.1354675  -0.0073712   0.5150811   0.1720718   0.6101191
   0.8173344  -0.1422933  -1.0940201   0.0000000   0.0000000   0.0000000
  -0.1536760  -0.1837921   0.0859639   0.8455806  -0.1399306  -0.7957746
   0.6842837  -0.9777967   0.4501380   0.0000000   0.0000000   0.0000000
  -0.0819450  -0.2512611   0.3061304   0.2219942  -0.2265181  -0.4188917
  -0.3134426   0.4762790   0.2357188   0.0000000   0.0000000   0.0000000
  -0.0783290  -0.0389523   0.0589294  -0.0832575  -0.6616059   0.0869451
   0.2329228   1.2914452  -0.3445166   0.0000000   0.0000000   0.0000000
  -0.1492489   0.0088550  -0.0554416  -0.2963057  -0.3078634   0.2152877
  -0.5564081   0.0294142  -0.1035608   0.0000000   0.0000000   0.0000000
  -0.4209883  -0.1261983   0.3552125  -0.0788446  -0.1729810  -0.3400382
   0.1349998   0.0403120  -0.8531458   0.0000000   0.0000000   0.0000000
  -0.0973782   0.0992374   0.1055867  -0.1024750   0.2834551   0.1999454
  -0.1147068  -0.0023456   0.1591538   0.0000000   0.0000000   0.0000000
  -0.0125320   0.2227765   0.1521923  -1.1820304  -0.4154235   0.9445657
  -0.6638126  -0.3304135   0.7364807   0.0000000   0.0000000   0.0000000
  -0.1387760  -0.0504825  -0.4904914  -0.6838196  -0.2462339  -0.8197709
   0.3333271  -0.5426483  -0.5037065   0.0000000   0.0000000   0.0000000
   0.2577402   0.0526069  -0.2765177   0.4536823   0.0909190   0.0248492
   0.0450987   0.2435786  -0.2321845   0.0000000   0.0000000   0.0000000
   0.2842472   0.2498721   0.0622029   0.3494242   0.3125505   0.3554334
   0.4731330  -0.1844361  -0.0383811   0.0000000   0.0000000   0.0000000
  -0.2158717  -0.3733935  -0.1198411   0.3434273  -0.4885196  -0.1184835
  -0.9157087  -0.3578633   0.2696368   0.0000000   0.0000000   0.0000000
   0.0759930  -0.0818257   0.3260272   0.7072681   0.3110293  -0.1691735
   0.4275703  -0.2043587   0.6658883   0.0000000   0.0000000   0.0000000
   0.0086710   0.1845998   0.0463920   0.4762842   0.0572755  -0.1012097
   0.2746398   0.2412695  -0.0665877   0.0000000   0.0000000   0.0000000
  -0.0725170  -0.2564853  -0.1085262   0.8979798  -0.3179633   0.5786116
  -0.0337785  -0.4220427  -0.8868342   0.0000000   0.0000000   0.0000000
  -0.0186113   0.2610528  -0.0973083  -0.1804720   0.7403561   0.8056112
  -0.2684883   0.4033617  -0.2112937   0.0000000   0.0000000   0.0000000
  -0.0880501  -0.3464828  -0.4215704   0.4079307  -0.1220590  -0.8485054
   0.6358769   0.0489054   0.4235172   0.0000000   0.0000000   0.0000000
   0.1766724   0.0948042  -0.0593118   0.4400673  -0.2200439  -1.0136734
   0.4562610   1.3518900  -0.5307947   0.0000000   0.0000000   0.0000000
  -0.0717673   0.2244362   0.2463647  -0.6854928   0.4745966   0.6449806
  -0.4049113  -0.3367108   0.0350419   0.0000000   0.0000000   0.0000000
   0.0234471  -0.1158333   0.0355497  -0.1474659   0.6490572  -0.9631660
  -0.8314819   0.0821823   0.8992133   0.0000000   0.0000000   0.0000000
  -0.2012509   0.1370440   0.0509414  -0.7546413   0.6213245  -0.2059347
  -0.4413452   0.2463925   0.2472725   0.0000000   0.0000000   0.0000000
  -0.1104055   0.0706671   0.1073998   0.3340287  -0.2844864  -0.1227194
   0.2669065   0.6232295  -0.3320609   0.0000000   0.0000000   0.0000000
   0.4879694   0.1698404  -0.2641315   0.7636880  -0.3390291   0.1938848
  -0.1518433  -0.3029686  -0.9019586   0.0000000   0.0000000   0.0000000
  -0.2310761   0.1594858  -0.1165423   0.4978257   0.0566327  -0.4431287
   0.8203698  -0.5251640   0.6530008   0.0000000   0.0000000   0.0000000
  -0.2293339  -0.0794103  -0.1612993  -0.3296306   0.2310276   0.2387164
   1.5877768   2.0247114  -0.1028806   0.0000000   0.0000000   0.0000000
  -0.0161320   0.1555897  -0.1504416  -0.0813151   0.1326751  -0.7806139
   0.0238840   0.1526162  -1.7911205   0.0000000   0.0000000   0.0000000
  -0.0368854  -0.1151856   0.2759250   0.6164695  -0.5827551  -1.5612952
   0.5746501  -0.2827002  -1.4458816   0.0000000   0.0000000   0.0000000
   0.0647107  -0.1127688   0.1274542  -0.5837618  -0.5933753   0.3001990
   0.7805555   0.8050267  -0.6036032   0.0000000   0.0000000   0.0000000
   0.1443758  -0.0462949  -0.0955151   0.1124124   0.0742411  -1.2649583
  -0.1362625  -1.0665102   0.4349637   0.0000000   0.0000000   0.0000000
   0.0505370   0.0571296  -0.0539274   0.9519883  -0.4171953   0.2804813
  -0.3537182   0.1268335  -0.6990096   0.0000000   0.0000000   0.0000000
   0.0647272  -0.1977563   0.2404445  -0.8597041  -0.0895067  -0.1433205
  -0.8129367   0.6637331  -0.0811148   0.0000000   0.0000000   0.0000000
  -0.2503424  -0.0133545   0.1772819  -0.2857739   0.2059380  -0.4591029
   0.8052048   1.3405549   0.2121462   0.0000000   0.0000000   0.0000000
   0.0796383  -0.0516068  -0.0772438  -0.2026466   0.5460100  -0.5803638
   0.7936755  -0.0815991   0.2932342   0.0000000   0.0000000   0.0000000
  -0.2258655   0.2282344  -0.0492747  -0.1481861  -1.7177567   0.3086125
  -0.7662998   1.0959647  -0.0291828   0.0000000   0.0000000   0.0000000
   0.0989153  -0.3117785   0.0457446   0.5663320  -0.7481830  -0.6075508
   0.0981880  -0.1062901  -0.1833106   0.0000000   0.0000000   0.0000000
  -0.0490768   0.1149369   0.1335268   0.8103371   0.5192976   1.1693144
  -0.0581801   1.2819432  -0.3514049   0.0000000   0.0000000   0.0000000
  -0.1498218   0.0474164  -0.3403588  -0.5439974   0.7783023  -0.1242109
   0.6940848   0.1250793  -0.1665807   0.0000000   0.0000000   0.0000000
  -0.0011003   0.2053467  -0.1456099   0.3332249   1.3348650   0.5340628
  -0.3886267  -0.3798974   0.7039054   0.0000000   0.0000000   0.0000000
   0.3720244   0.0643576  -0.1015792   0.1150150  -0.5823333  -0.2822490
  -0.1800880   0.3150283  -0.0646514   0.0000000   0.0000000   0.0000000
  -0.2426050  -0.3527485   0.1853506  -0.2451748  -0.3272002   0.5996020
   0.2028890  -0.1160486   0.0033609   0.0000000   0.0000000   0.0000000
   0.0997998   0.1728199  -0.0265347   0.1876656  -0.2179569  -0.2979157
   0.5065577   0.3322526  -0.1104821   0.0000000   0.0000000   0.0000000
  -0.0844428   0.2025454   0.1052710   0.3112936   0.0418856   0.1967978
   0.1259360   0.2596394  -0.1774877   0.0000000   0.0000000   0.0000000
  -0.0347199   0.1310536  -0.0080551   0.1648062  -1.1058692  -0.0370397
   0.5895711   0.0902323   0.3384376   0.0000000   0.0000000   0.0000000
  -0.0996181   0.1176313  -0.1467858  -0.0642752  -0.0561051  -0.5509309
  -0.1750688   0.3303426  -0.2618281   0.0000000   0.0000000   0.0000000
  -0.0403919   0.2150082  -0.0271221  -0.2474117   0.6412817   0.3617707
  -0.4926376  -0.2547824  -0.2068347   0.0000000   0.0000000   0.0000000
  -0.1782323  -0.3456760  -0.0659042   0.0937438   0.5009803  -0.1144381
  -0.7932189  -2.7332244  -0.2665793   0.0000000   0.0000000   0.0000000
   0.0204058  -0.1828679   0.0018139  -0.2893414  -0.2462354   0.2243991
  -0.1161069  -0.2289480   0.0978774   0.0000000   0.0000000   0.0000000
   0.0683015   0.4383037   0.2182020   0.2564259   0.6005573   0.0288557
   0.2973245   0.2120997   0.4154997   0.0000000   0.0000000   0.0000000
   0.0952031  -0.0112695   0.0664923  -1.3864236   0.4677081  -0.1639262
  -0.1070099  -0.0707869   0.0154269   0.0000000   0.0000000   0.0000000
   0.1443741  -0.1317301  -0.2345235   0.0063648  -0.9788757   0.4230129
   1.5844071   0.3849200   0.4535216   0.0000000   0.0000000   0.0000000
   0.0117248  -0.1668475  -0.0055628  -0.3906946  -0.7045546   0.0627107
   0.1346292  -0.3776946   0.2916489   0.0000000   0.0000000   0.0000000
   0.1492454  -0.1010095   0.1219162   0.2861404   0.0075401   0.3623615
  -0.0197054   0.7593848   0.0435596   0.0000000   0.0000000   0.0000000
   0.0682334  -0.1287256   0.1346040  -0.1276354  -0.1934501   0.1616058
   0.1954135   1.4327108   0.3133625   0.0000000   0.0000000   0.0000000
   0.1031633  -0.0374567  -0.1094471   0.2414452  -0.0150698  -0.2217961
  -0.0163688  -0.0611609  -0.0422169   0.0000000   0.0000000   0.0000000
  -0.0697132   0.2580975   0.3077665  -0.1419903   0.7509477  -0.0144232
  -0.3602821  -0.1688357   0.7658476   0.0000000   0.0000000   0.0000000
   0.2677188  -0.0234253   0.3350225  -0.2681851   1.1001763  -0.3534302
   1.0195995  -0.2347568  -0.3041743   0.0000000   0.0000000   0.0000000
  -0.1590650  -0.1944495   0.0461874  -0.0704449  -0.9270704   0.3307354
  -1.0563996   0.4724943  -0.8759694   0.0000000   0.0000000   0.0000000
  -0.1526974   0.0219129  -0.2267248  -0.7294375  -0.4729798  -0.3965399
  -0.1174358  -0.3321261  -0.1641850   0.0000000   0.0000000   0.0000000
  -0.1119040  -0.1856493  -0.0953951  -1.4068089  -0.8085848  -0.1340136
  -0.6111695  -0.1044574   0.8126868   0.0000000   0.0000000   0.0000000
   0.1225638   0.2015927  -0.0223849  -0.0209632   0.1680229   0.0048420
   0.7742923   1.1177194   0.1746539   0.0000000   0.0000000   0.0000000
  -0.1311465  -0.4682494  -0.0322355  -0.8362687  -0.1943889   1.6663741
   0.2181389  -0.5426183  -0.6887776   0.0000000   0.0000000   0.0000000
  -0.3442533   0.1907433   0.1854265   0.6237147  -0.2020397   0.1531466
  -0.1817821   1.0575559   0.0284145   0.0000000   0.0000000   0.0000000
  -0.1616999   0.6743773   0.0928145  -0.8129891  -0.0308680   0.2309955
  -0.4132355   0.2402699  -0.5006573   0.0000000   0.0000000   0.0000000
   0.0680015   0.1338393  -0.0646154  -0.4947501  -0.7072740  -0.1158803
  -0.8946961  -0.0943838   0.5663872   0.0000000   0.0000000   0.0000000
   0.0864428  -0.1684850   0.3707797   0.7085762   0.5113276   0.3638626
   0.0994566  -0.1721025   0.4512687   0.0000000   0.0000000   0.0000000
   0.1499054  -0.0556172   0.0267835   0.3367237  -0.2280342   0.0169292
  -0.3629038   0.2595723   0.0450098   0.0000000   0.0000000   0.0000000
   0.2832871  -0.2349491  -0.0395850  -0.1446434   0.4949403   0.2247579
  -1.0946905   0.0416052   0.8106637   0.0000000   0.0000000   0.0000000
  -0.1695351   0.3192015  -0.2540514   0.0238470   1.0406765   1.0156328
   1.0437030   0.0586370  -0.5792060   0.0000000   0.0000000   0.0000000
   0.2353790   0.1227431  -0.0632198   0.4469491  -0.4872323   0.9781841
  -1.0504501  -0.0952844  -1.9096587   0.0000000   0.0000000   0.0000000
  -0.2589296   0.0594843  -0.0262993  -0.3955870  -0.6625665   0.3421232
   0.0063080  -0.3659686   0.9131863   0.0000000   0.0000000   0.0000000
  -0.1079936   0.1121511  -0.3389660   0.0484614  -1.0866587   0.1108778
   0.3006935   0.9573407   0.4440700   0.0000000   0.0000000   0.0000000
  -0.0669791   0.1903969  -0.2969583  -0.9517234  -0.2427251   0.0679102
   0.3474463  -0.7092752  -0.9114087   0.0000000   0.0000000   0.0000000
   0.1434224   0.4717742   0.0900045  -1.4516271  -0.5395621  -0.6525923
   1.2600745   0.8735996   0.1846370   0.0000000   0.0000000   0.0000000
   0.3923890  -0.1685831  -0.0346983   1.2004394  -1.0963222  -0.1187660
  -0.3297173   0.7064522  -0.1075460   0.0000000   0.0000000   0.0000000
   0.1850841   0.0326040   0.2939085   0.2270280   0.0732805  -0.0674375
  -0.6469381   0.7877891  -0.0482643   0.0000000   0.0000000   0.0000000
  -0.1237477   0.0734927   0.1280083  -0.4861621  -0.0424995   0.5756896
  -1.8749449  -0.1916350   1.8199233   0.0000000   0.0000000   0.0000000
  -0.2051356   0.0554507   0.0452121  -0.0953244   0.6464542  -0.1988243
  -0.9487996  -1.1609860   0.1166127   0.0000000   0.0000000   0.0000000
   0.1035315  -0.4217664   0.0942857  -0.1081180  -0.1629494   0.7132891
   1.1722245   2.0347025   0.1933726   0.0000000   0.0000000   0.0000000
  -0.3089563   0.1522292   0.0655425   1.8079478   0.5276444   0.6510237
  -0.4918425   0.1116594  -0.0044632   0.0000000   0.0000000   0.0000000
  -0.0239984  -0.1678124  -0.4168014  -1.5794532   0.8830570  -0.4073493
   0.0081975  -0.3414736  -0.5316556   0.0000000   0.0000000   0.0000000
   0.1118613  -0.0355944  -0.2266053   0.0453440  -0.3374439  -0.7270913
  -0.2226511   0.0588818  -0.0033857   0.0000000   0.0000000   0.0000000
   0.0136109   0.0459598  -0.0421418   0.6183326   0.8485924   0.1506611
  -0.3633436   0.4735301  -1.1605699   0.0000000   0.0000000   0.0000000
  -0.0901331  -0.0570965  -0.1261194  -0.1648678   1.1466698   0.6908187
   0.8360568  -0.2055494  -0.9214357   0.0000000   0.0000000   0.0000000
   0.0040600   0.1347662  -0.0525088  -0.3623225  -0.5865355  -0.0852294
   0.9573600   0.3521376  -0.7912809   0.0000000   0.0000000   0.0000000
  -0.0534496  -0.1660942  -0.0185267  -1.0639326  -0.8464537   0.3828377
   0.1079884   0.4432583  -0.1527703   0.0000000   0.0000000   0.0000000
  -0.4380893   0.0775305   0.1508978   0.8910914   0.2312729  -0.6045250
  -0.7924995   0.1848699  -1.4139311   0.0000000   0.0000000   0.0000000
   0.1212462  -0.1160934  -0.0562269  -0.9753091   0.5376029  -0.8934307
   0.4877265  -0.3513662  -0.6076757   0.0000000   0.0000000   0.0000000
  -0.1760139  -0.1298680   0.3128100  -0.5781771  -1.4112391  -1.1981826
   0.9014313   1.0765540   0.4395373   0.0000000   0.0000000   0.0000000
  -0.1075341  -0.1824173   0.0142891  -0.4748897  -0.3677510  -0.2276559
  -0.5327773  -0.3504830  -1.1855024   0.0000000   0.0000000   0.0000000
  -0.0715108  -0.0465261  -0.0585180  -0.0720369  -0.1019955  -0.3758704
  -0.0052128  -0.0955302  -0.4066333   0.0000000   0.0000000   0.0000000
   0.0497441   0.1381285  -0.1347391   0.4393212  -0.7309259  -0.7580103
  -0.1254275   0.9474797   0.2693673   0.0000000   0.0000000   0.0000000
  -0.1357383   0.3028085  -0.1199049  -0.7221440   0.3769565  -0.6873767
  -0.1419556   0.4941562   0.6716578   0.0000000   0.0000000   0.0000000
  -0.0705693   0.5108300  -0.0409679  -0.5411416   1.0152118   0.2319937
   0.4205144  -0.4914165  -0.7034787   0.0000000   0.0000000   0.0000000
  -0.0828317  -0.3544725  -0.0175640   0.1704486   0.9190163  -0.3210926
  -0.4031019   0.7096649  -0.4880065   0.0000000   0.0000000   0.0000000
  -0.0025430  -0.1385691  -0.0775956   0.0662275   0.1543499  -0.6454149
   0.3278381   0.3114711  -0.6329890   0.0000000   0.0000000   0.0000000
  -0.1010000   0.4838219   0.0445074   0.0593701   0.0512920  -0.4600753
  -0.0304858   0.1588489  -0.4456565   0.0000000   0.0000000   0.0000000
  -0.1545813   0.2085867  -0.1370182  -0.5472906   1.5334608  -0.3859496
   0.2695954   0.0398957   0.0655706   0.0000000   0.0000000   0.0000000
   0.0762022  -0.2396919   0.0602517  -0.1796821   0.1886036   0.1322653
   0.1317624  -0.0615673   0.1040104   0.0000000   0.0000000   0.0000000
   0.0286652  -0.0485177   0.0406986   0.5824176   0.3020525  -0.9441617
   0.3288131  -0.3914347   0.4859488   0.0000000   0.0000000   0.0000000
  -0.0109066  -0.0275582   0.1017542   0.9121284   0.9451107   0.1821764
   0.0246117   0.6660137   0.0473909   0.0000000   0.0000000   0.0000000
   0.0150264  -0.2425835   0.1154520  -1.1324208  -0.0703574   0.8056563
   0.3636624   0.6709760  -1.2854323   0.0000000   0.0000000   0.0000000
  -0.0793159  -0.0367964   0.0503230   0.6870970  -0.3033466   0.6329529
  -0.3797262  -0.8604601  -0.6748213   0.0000000   0.0000000   0.0000000
  -0.0076568  -0.0269564   0.2750709  -0.5244343   1.6419322  -0.0791569
   0.0190403  -0.0647118   0.3132456   0.0000000   0.0000000   0.0000000
   0.1935452  -0.3641811  -0.0246054  -0.0057504   0.0767984   0.2910545
  -0.3315720   0.0122402   0.4265446   0.0000000   0.0000000   0.0000000
   0.0681348   0.2528694   0.0789654   0.1456178   0.3211554  -0.2725906
   0.2224411  -0.9981857  -0.7666803   0.0000000   0.0000000   0.0000000
   0.1819018  -0.1098936   0.0370544   0.3920991   1.0156022  -0.6489456
  -0.2603582  -0.0183666  -1.2456872   0.0000000   0.0000000   0.0000000
  -0.1539382  -0.2388639   0.0722118   0.1843280   0.4694082  -0.5390885
  -0.2508750  -0.0066394   0.2698316   0.0000000   0.0000000   0.0000000
   0.1864809   0.0961871   0.1271243  -0.0780130   0.2970899   0.1168435
   0.1286617  -0.1787109   0.2810054   0.0000000   0.0000000   0.0000000
  -0.0698191   0.2961861   0.3609624   0.5041131  -0.5586621   0.5363772
   0.0056820   0.1323991   0.5474858   0.0000000   0.0000000   0.0000000
  -0.1448731  -0.3706326   0.2741123   0.1135288   0.4016896  -0.7766983
  -0.1980971  -0.4878835  -0.1228583   0.0000000   0.0000000   0.0000000
   0.0236853  -0.0942623   0.2399587  -0.6362953  -0.5354840   0.8905782
   0.7582368  -0.7156403  -0.2168474   0.0000000   0.0000000   0.0000000
  -0.1492525   0.3306188  -0.2553763  -0.8720224  -0.4015081  -0.5368790
  -0.3259024   0.8462313   0.9458215   0.0000000   0.0000000   0.0000000
   0.1409031   0.0693468   0.1087491  -0.3388985   1.1149839   0.6008033
   0.1606052   0.1655767   0.1623447   0.0000000   0.0000000   0.0000000
   0.0226244  -0.2415805   0.2203890   0.6728638  -0.0231703   0.3320275
   0.1920403  -0.6394438  -0.0760366   0.0000000   0.0000000   0.0000000
   0.0004702  -0.0410336   0.1154275  -0.1808584   0.2452567   0.8265672
   0.7180335   0.8329602  -0.1281659   0.0000000   0.0000000   0.0000000
   0.0632229   0.0176755  -0.0540019   0.1183713   0.1770095   0.0788964
  -0.2861272  -0.0860426   0.1011965   0.0000000   0.0000000   0.0000000
  -0.0621475  -0.0600480   0.0403408  -1.2893110   0.2061005   0.6185806
   0.6518844  -0.6759844   0.5264454   0.0000000   0.0000000   0.0000000
  -0.2726609   0.1146326  -0.0895026  -0.6153232   0.4138788  -0.5882717
  -0.1803795  -0.1689741  -0.4439610   0.0000000   0.0000000   0.0000000
  -0.0891446  -0.0306049   0.0292963   0.3415627  -0.0616216   0.2780432
   0.6718766  -0.1518143   0.3715300   0.0000000   0.0000000   0.0000000
  -0.2092511   0.1396088   0.0327054  -0.0611921  -0.5224332  -0.2316606
  -0.2336800  -1.1681192  -0.2717631   0.0000000   0.0000000   0.0000000
  -0.1067916   0.1209697   0.3108865  -0.2636587   0.5078745  -0.1918903
   0.4712931  -0.0594071   0.1750862   0.0000000   0.0000000   0.0000000
   0.0381794  -0.0031367  -0.2032167  -0.2329904   1.1406077  -0.2844296
  -0.0676016   0.1739933  -0.4363250   0.0000000   0.0000000   0.0000000
  -0.1252198  -0.1108801  -0.0757617  -0.2075175  -0.1728018   0.3482921
  -0.2231942   0.6353743   0.2581422   0.0000000   0.0000000   0.0000000
   0.3040052  -0.0700402   0.0425414   0.4601286  -0.1995514   0.3186762
   0.2119660  -0.1934714  -0.4737962   0.0000000   0.0000000   0.0000000
   0.0630838  -0.0173148  -0.3091830   0.4200804   0.4109916   1.0839933
  -0.0011724  -0.8893137  -0.3472664   0.0000000   0.0000000   0.0000000
   0.0524186  -0.0651734   0.0459938  -0.6475031   0.1172513  -0.5837220
   0.2002076  -0.6029320   0.2318214   0.0000000   0.0000000   0.0000000
   0.0232342  -0.0608493   0.2705199  -0.1851098   0.1667443  -0.6240945
   0.3902968  -0.2744032   0.6373707   0.0000000   0.0000000   0.0000000
   0.0094830  -0.3285147  -0.0906476   0.4459758   0.3886590   0.7814708
   0.2833430  -0.5251879  -0.0018263   0.0000000   0.0000000   0.0000000
   0.0406667   0.2337995   0.3214526   0.0468965  -0.5580149   0.1295693
   0.0717088   0.3397012   0.2956711   0.0000000   0.0000000   0.0000000
  -0.1883466   0.1603319  -0.2003223  -0.0556488  -0.3538649   0.6347561
  -1.1944353   0.3008423  -0.1815812   0.0000000   0.0000000   0.0000000
  -0.0475348  -0.1055473   0.1208871   0.2692460  -0.4815304   0.5873471
   0.5975741   0.2655877  -0.2003688   0.0000000   0.0000000   0.0000000
   0.0571904  -0.0327070  -0.4777300   0.4381716  -0.6313780  -0.8866805
  -0.7191355   0.6132707   0.2925120   0.0000000   0.0000000   0.0000000
  -0.1123329  -0.2539248  -0.1663738   0.3725702  -0.6117822  -0.2515619
  -0.0779128   0.1002686   0.4164522   0.0000000   0.0000000   0.0000000
   0.2623199   0.2125851   0.0075961   1.3698818   0.9229656  -0.7157708
  -0.2586020   0.3914848  -0.2464230   0.0000000   0.0000000   0.0000000
  -0.0799889  -0.1502281   0.1689736  -0.4678486  -0.1920059   0.5386206
  -0.2387915  -0.1041048  -0.6916100   0.0000000   0.0000000   0.0000000
  -0.1340936   0.0278067  -0.0704503   0.0419940  -0.3033990   0.5151231
  -0.0395068   0.0033409  -1.2430341   0.0000000   0.0000000   0.0000000
  -0.0104476   0.2485804   0.2014294  -0.4494991   0.8437111   0.4495504
   0.4240885   0.6915521  -0.2843569   0.0000000   0.0000000   0.0000000
   0.0055646  -0.3085531  -0.0421469  -0.1598265   1.8193110  -0.5554902
  -0.1685607   0.8760681  -0.2731626   0.0000000   0.0000000   0.0000000
   0.0024419  -0.2663357   0.0368992  -0.2716873   0.1292517   0.2902660
  -0.1151083   0.1706316   0.1527130   0.0000000   0.0000000   0.0000000
   0.1155464   0.0521627  -0.0845186  -0.0808773  -1.2417473  -0.0538902
   0.0052085  -0.8226176   0.2004579   0.0000000   0.0000000   0.0000000
  -0.0685258  -0.0961965  -0.0432231   0.3011338  -0.3667574  -0.1593218
  -0.6693933  -0.4573302   1.0578688   0.0000000   0.0000000   0.0000000
  -0.3159740  -0.1233693  -0.4700771  -0.9175452  -0.4128468   0.0411627
  -0.3747841  -0.6287990   1.0839728   0.0000000   0.0000000   0.0000000
  -0.0573658  -0.0984703   0.0341393  -0.1205020   0.2286333  -0.2101489
   0.3103188  -0.1504396   0.0405224   0.0000000   0.0000000   0.0000000
   0.0674039   0.1620658  -0.0785120   0.7744266   0.3205836  -1.3857637
  -0.1294538   1.1309662  -0.0887984   0.0000000   0.0000000   0.0000000
  -0.1217121   0.0499041   0.0270653  -0.3968499   1.2197290  -1.0481211
  -0.4729207  -1.1401091  -0.0851570   0.0000000   0.0000000   0.0000000
   0.2689203   0.3300492  -0.2028186   0.2428332   0.4173914  -0.5952795
  -0.7567749  -0.6793179  -0.2809042   0.0000000   0.0000000   0.0000000
   0.0158191  -0.0295663  -0.0359894   0.4590162   0.0361264   0.0716312
  -0.0774604  -0.5544693   0.1868000   0.0000000   0.0000000   0.0000000
  -0.0849904  -0.1405763   0.0766416   0.0949094   0.1757004   0.0365874
   0.0421267  -0.2590342   0.2128689   0.0000000   0.0000000   0.0000000
   0.3181115  -0.4604243  -0.1623280   0.3632013   0.3259077   0.6782609
  -0.3265594  -0.8157064  -0.5287483   0.0000000   0.0000000   0.0000000
   0.1425201  -0.0929215  -0.3479486  -0.0283109   0.8303794   0.0076868
   1.0165044   0.1409363  -0.4267896   0.0000000   0.0000000   0.0000000
   0.0426048   0.0349244  -0.5054401   0.9764229  -0.0012324   0.0989714
  -0.0268271   1.1904258  -0.5622361   0.0000000   0.0000000   0.0000000
   0.3023927   0.1036298   0.3616631   0.2745261  -0.4872079   0.0127069
   0.3453852  -0.0188353   0.3983654   0.0000000   0.0000000   0.0000000
   0.2721706   0.1295746   0.2952430   0.4163852  -0.0179258   0.2042135
  -0.7069907   0.1528533   0.8126026   0.0000000   0.0000000   0.0000000
  -0.0468557  -0.1681749   0.3000475  -0.4393249  -0.4077994  -0.3621006
  -0.6473313   0.1823230   0.6324845   0.0000000   0.0000000   0.0000000
   0.1721289  -0.0630992   0.4893246   0.0715438  -0.2080559  -0.3566980
  -1.1274864   0.6351138   0.1408397   0.0000000   0.0000000   0.0000000
  -0.1898540  -0.1705597  -0.0020848   0.2882018   0.2305307  -0.0116321
   0.2757722   0.3958267  -0.9282747   0.0000000   0.0000000   0.0000000
  -0.2336813  -0.1318665  -0.1614163  -0.1939873  -0.0090976   0.1174162
  -0.6218591  -1.1981871  -1.2082876   0.0000000   0.0000000   0.0000000
  -0.0764257   0.0524232   0.0729568   0.3707431  -0.1929610   0.0414315
   0.7017335  -0.1622199   0.0402955   0.0000000   0.0000000   0.0000000
  -0.0611743   0.1566630   0.0038665   0.6633591  -0.9382122  -0.8919226
   0.0234579  -0.3451837  -0.1260502   0.0000000   0.0000000   0.0000000
  -0.3389022   0.1400487   0.0863034   0.0395785  -0.1509156  -1.5246963
  -0.2645350   0.1100627   0.9575509   0.0000000   0.0000000   0.0000000
  -0.3416749   0.1167141  -0.3185741   0.1600157   0.5209102  -1.8076120
  -1.7723246   0.2735835   1.3051021   0.0000000   0.0000000   0.0000000
  -0.2662362  -0.0195332  -0.3463719   1.0092125  -0.0576269  -0.1861822
  -0.5336469  -0.1626762   0.4747937   0.0000000   0.0000000   0.0000000
  -0.0417529  -0.2360515  -0.1200007   0.4534536  -0.3695527  -1.1730554
  -0.2915154  -0.2853459   0.4838484   0.0000000   0.0000000   0.0000000
  -0.2052237  -0.0531340  -0.2357701  -0.3634064   0.8481845   0.6082649
   0.6166330   0.3302475  -0.9806676   0.0000000   0.0000000   0.0000000
   0.1601456   0.0351121   0.4101706  -0.0186496   0.0584310  -0.2087898
   0.0456182  -0.3778200   0.7853546   0.0000000   0.0000000   0.0000000
  -0.1211761   0.1980832  -0.3081042   0.0149253  -0.6526328   0.2121313
  -0.3671598  -0.2159401  -0.4751514   0.0000000   0.0000000   0.0000000
  -0.1688602   0.0053634  -0.0405173   0.1285638   0.4177873   0.0407366
   0.6520536  -0.8867634  -0.1828499   0.0000000   0.0000000   0.0000000
  -0.0937288   0.4618134   0.0704104  -0.1001669   0.4754058  -0.4755422
  -0.2861698   0.3964391  -0.9922788   0.0000000   0.0000000   0.0000000
   0.0152984   0.0342753   0.1638342  -0.5398765   0.0984257   1.1729347
   0.0098007  -0.2125423  -0.0767339   0.0000000   0.0000000   0.0000000
  -0.1580096  -0.0112879   0.1156204   0.3243279   0.3672149   0.0805813
  -0.0834154  -0.0407319   0.5411715   0.0000000   0.0000000   0.0000000
  -0.0446760  -0.1023323  -0.0624658  -0.9590414  -0.2768458  -0.2269481
   0.6495475  -1.1298843  -0.6362369   0.0000000   0.0000000   0.0000000
   0.0198922  -0.2665457   0.2349708  -0.4671313   0.4871999  -0.6764893
  -0.3236492   0.0783063   0.5985539   0.0000000   0.0000000   0.0000000
   0.2193668   0.1857412  -0.0701467   0.7207137   0.1892255  -0.8630500
  -0.2837343   0.2014858   0.8045102   0.0000000   0.0000000   0.0000000
  -0.1460732  -0.2085843   0.0470140  -0.6113124   0.0307818   0.4154706
  -0.8341271   0.4736377   0.2185193   0.0000000   0.0000000   0.0000000
   0.1527233  -0.2756076  -0.0815811   0.2104548  -0.5289615   0.5752691
   0.0934976  -0.4595036  -0.2871766   0.0000000   0.0000000   0.0000000
   0.1421289  -0.1193145   0.1525076   0.0020043  -0.1073172  -0.8541788
   0.9381263  -0.4324927  -0.2148921   0.0000000   0.0000000   0.0000000
   0.2095673   0.2041820  -0.0540831   0.4167628  -0.0917158   1.3865636
   0.3821936   0.0092669   0.3499599   0.0000000   0.0000000   0.0000000
  -0.0333206   0.0392869  -0.1690824   1.1899156   0.5264376  -0.2800484
   0.1604968  -0.0019425   0.0166602   0.0000000   0.0000000   0.0000000
  -0.0224989  -0.0327684  -0.2405120   0.2400003  -0.2340289  -0.0376612
  -0.0715217   0.0803077   0.0424689   0.0000000   0.0000000   0.0000000
  -0.0847881   0.0692472   0.1087630   0.3993029   0.7935678   0.4412106
  -0.6098674  -0.3548991  -0.0885250   0.0000000   0.0000000   0.0000000
   0.0256798   0.0053674   0.1604682  -0.4146354  -0.0432586  -0.3009721
  -0.2966514   0.5021758   0.5060698   0.0000000   0.0000000   0.0000000
  -0.0130180   0.2166848   0.2667424  -0.4224487   0.6736331  -0.1290919
   0.7585793   0.7866058  -0.5793107   0.0000000   0.0000000   0.0000000
   0.0132355   0.2132776  -0.0094845  -0.4054999   0.2488086  -0.1831570
   0.2566998   0.5911797   0.2648578   0.0000000   0.0000000   0.0000000
  -0.1581142   0.2943090  -0.0058461  -0.3970414   1.2094102   1.0818209
  -0.2268659   0.3759730  -0.1124455   0.0000000   0.0000000   0.0000000
  -0.1932350   0.0658629   0.0590258   0.6101952  -0.5472821   0.1355045
  -0.5403369  -0.3457211  -0.9123678   0.0000000   0.0000000   0.0000000
  -0.0898175   0.0597307   0.0618565   0.2574005   0.5532798   0.1049250
   0.3982198   0.1869542  -0.4793323   0.0000000   0.0000000   0.0000000
  -0.0682949  -0.0138051   0.1604143   1.2099463   1.2992553   0.4462759
  -0.1211271   0.0022283   0.1200719   0.0000000   0.0000000   0.0000000
  -0.0862409   0.0778378  -0.1438640  -0.0605770  -0.3058877   0.5751379
  -0.0915714  -0.1947831   0.3522367   0.0000000   0.0000000   0.0000000
  -0.1262026   0.0043439   0.0004456   0.1236317  -0.0858577  -0.1258490
   0.3462765   0.1080074  -0.1184545   0.0000000   0.0000000   0.0000000
   0.5343842   0.0651384  -0.1874414   0.2255771   1.0064354   0.2883972
  -0.7080975  -1.4833695   0.2356878   0.0000000   0.0000000   0.0000000
  -0.2930901  -0.1002116   0.1120641  -0.0544732  -0.0853448   0.6680716
  -0.2771647  -0.1520990  -0.4865213   0.0000000   0.0000000   0.0000000
   0.0465282  -0.0355055   0.1257630   0.3155373   0.5761016   0.2941608
   0.5639761  -0.6311547  -0.0150707   0.0000000   0.0000000   0.0000000
  -0.1005838   0.3131398   0.0090426  -0.2438507  -0.4756947   0.2579285
  -0.5144762   0.5164963   0.8994904   0.0000000   0.0000000   0.0000000
  -0.1213679  -0.1554353   0.2536645   0.7092286  -0.3197103   0.1758953
  -0.3077443  -0.1976636   1.0852004   0.0000000   0.0000000   0.0000000
  -0.1004712  -0.1259559  -0.1545266  -0.0750231   0.1434617  -0.5861057
   0.6625454   0.0747656  -0.4410579   0.0000000   0.0000000   0.0000000
   0.0682926  -0.2491291   0.0656957  -0.2157137  -0.1964763  -0.3087224
   0.2738442  -0.3945746   0.2008628   0.0000000   0.0000000   0.0000000
   0.0650712   0.3523102  -0.0242623   0.0336992   0.5862206   0.6312999
  -0.2108814  -0.5432993   0.8364441   0.0000000   0.0000000   0.0000000
   0.1059383  -0.0822866  -0.0004978  -0.0114122  -0.4588767   0.6431390
   0.0072027  -0.5833371   1.1032057   0.0000000   0.0000000   0.0000000
   0.1324815  -0.2667513  -0.2414224   0.4018159   0.1702765  -0.1474099
  -0.6538620  -0.9673322   0.0128496   0.0000000   0.0000000   0.0000000
   0.0392967   0.0544210   0.1819614   0.1323653  -0.1526127  -0.3274441
  -0.0588010   0.1577314   0.4843187   0.0000000   0.0000000   0.0000000
  -0.0418074  -0.2045323  -0.1333201  -0.8234219   0.2453486  -0.3292247
   0.3199427   0.1679184  -0.6653608   0.0000000   0.0000000   0.0000000
  -0.6115905  -0.0098364  -0.0831434   0.5840488  -0.9845017  -0.1714023
  -0.7131486  -0.1535316   0.2925319   0.0000000   0.0000000   0.0000000
   0.2488861  -0.1648573   0.0249501  -0.9489962  -0.0756167  -0.3051313
   0.6172457  -1.4272537  -0.0574705   0.0000000   0.0000000   0.0000000
   0.0376717   0.0397436  -0.1650022  -0.0660679  -0.5055582  -0.1883995
  -0.1093700  -0.6142712  -0.0897398   0.0000000   0.0000000   0.0000000
   0.1626233  -0.1247762  -0.0317485  -0.6690591   0.0151927  -0.4756626
   0.3450414  -1.2365856  -0.6551390   0.0000000   0.0000000   0.0000000
  -0.1275646  -0.0064652  -0.2599085  -0.3476649   0.1044305  -0.4319718
  -0.0887143   0.0559885  -0.3040575   0.0000000   0.0000000   0.0000000
  -0.0814082  -0.1142643   0.1084755   0.3078040  -0.6633523   0.0475983
  -0.0688859  -0.2710367   0.0634549   0.0000000   0.0000000   0.0000000
  -0.2045619  -0.1897707  -0.3512926  -0.7539712  -0.1848231  -0.6916469
   0.8360670  -0.0633684   0.5836726   0.0000000   0.0000000   0.0000000
  -0.0541013  -0.1062924   0.3575257  -0.6946213  -1.0583831   1.0363737
   0.4127787  -0.5845745  -0.2319100   0.0000000   0.0000000   0.0000000
  -0.0301349   0.1807116  -0.1867631   0.7363593   0.3325362  -0.1248459
   0.6538921   0.4992615  -0.2343099   0.0000000   0.0000000   0.0000000
  -0.0017600   0.0188417   0.1106385  -0.9069592  -1.2695298  -0.2210405
   0.5633708  -0.0713487   1.4011893   0.0000000   0.0000000   0.0000000
   0.3528950  -0.0310092   0.1205309   0.2083945  -0.2884054  -0.4571737
  -0.5025487  -0.1949347   0.1601749   0.0000000   0.0000000   0.0000000
  -0.0852702   0.3264889   0.2659426  -0.3295396   0.6061340   0.1954237
  -0.2532185  -0.0304912  -0.0812046   0.0000000   0.0000000   0.0000000
  -0.1911062   0.2829264   0.0677164  -0.2138021   0.1704959   0.1043125
  -0.2660555   0.0757037   0.0351645   0.0000000   0.0000000   0.0000000
  -0.0726942  -0.1208597   0.3034643   0.6236260   0.0774500  -0.2133254
  -0.5629817   0.4678520   0.4709360   0.0000000   0.0000000   0.0000000
   0.0847921  -0.2217297  -0.2441613   0.4020747  -0.4154919  -0.3811164
   0.4991343  -0.7335960  -0.6681997   0.0000000   0.0000000   0.0000000
  -0.0348920   0.1265022   0.1282806  -0.1929316   0.7269077   0.4891443
   0.6372395  -1.0944983  -0.7117072   0.0000000   0.0000000   0.0000000
   0.3029435   0.2686601  -0.0477821   0.8982582   0.4915760  -1.2357406
  -0.1343815   0.0162597   0.8827737   0.0000000   0.0000000   0.0000000
  -0.0253315  -0.0164160  -0.0611268   0.8600016  -1.3076181  -0.2475283
  -0.7067163   1.2744562   0.0546748   0.0000000   0.0000000   0.0000000
  -0.0760601   0.0768250   0.1406893  -0.4623088  -0.5571374   0.1038299
   0.0384776   0.1290931   0.2016255   0.0000000   0.0000000   0.0000000
  -0.0777166   0.0424190   0.0434402  -0.3272743  -0.0778250  -1.2030129
   0.4220940   1.4413930   0.0933492   0.0000000   0.0000000   0.0000000
   0.0823269  -0.1883225  -0.2737217  -0.7363874  -0.5101313  -0.5684244
   0.4692262  -0.0824011   0.2492989   0.0000000   0.0000000   0.0000000
   0.2735666  -0.1909803   0.1531319   1.0482864  -0.7132502  -0.4638923
  -0.2132956   0.2452804   0.0929989   0.0000000   0.0000000   0.0000000
   0.0390713   0.1679526   0.3380610   0.0496492   0.0772823   0.6656933
   0.8010427  -0.2994247   0.2018501   0.0000000   0.0000000   0.0000000
   0.1896198   0.1398728   0.0397386  -0.2771664   0.0972330  -0.3986469
   0.2207296  -0.8825551   0.3406594   0.0000000   0.0000000   0.0000000
   0.2257721  -0.1020377   0.0064002   0.3328045  -0.0071777  -0.2004459
   0.2686022  -0.1242563   0.2952548   0.0000000   0.0000000   0.0000000
   0.0509775  -0.0121291  -0.2094577   0.3669318  -0.0393782  -0.3991111
  -0.0422970  -0.4077301   0.0083449   0.0000000   0.0000000   0.0000000
   0.1514576   0.1851674   0.0609481   0.3809611  -0.2004419   0.7304158
   0.9751074   0.0531844   0.6655546   0.0000000   0.0000000   0.0000000
  -0.1104142  -0.0407637   0.0323325  -0.1328191  -0.1254734   0.1878396
  -1.5859975   0.1731527  -0.7467501   0.0000000   0.0000000   0.0000000
   0.2969369  -0.1831483  -0.1624900  -0.0202301  -0.4331722  -0.9360211
  -0.9232878  -0.1910001   0.6367689   0.0000000   0.0000000   0.0000000
   0.1427962  -0.2130404   0.1042356  -0.7240953  -0.7163579   0.4937391
   0.1109597  -0.2176586  -0.1280453   0.0000000   0.0000000   0.0000000
  -0.0455603  -0.0789446   0.0804943  -0.0321804  -0.1061103   0.2844168
  -0.4700090  -0.2778468   0.1898714   0.0000000   0.0000000   0.0000000
   0.2084748   0.1117123  -0.1218941   0.1043495   0.2840935  -0.0213758
  -0.0963031   0.3207198  -0.3070655   0.0000000   0.0000000   0.0000000
  -0.4125573   0.1598697  -0.1240157  -1.0395949  -0.7894918  -0.8096629
  -1.1541398  -0.5653633  -0.7776808   0.0000000   0.0000000   0.0000000
  -0.1345875  -0.0316274  -0.0353806  -0.5123742   0.0829211  -0.2103815
  -0.2813630  -0.0139404  -0.2866160   0.0000000   0.0000000   0.0000000
  -0.0530870   0.0612025   0.0938920   1.1319018  -0.2706084   0.6684727
   0.8946572   0.8990611  -0.4937874   0.0000000   0.0000000   0.0000000
   0.0918186   0.0776912   0.0028350   0.1022145  -0.9191503   0.2852044
  -0.1957191   0.5363634  -0.2042134   0.0000000   0.0000000   0.0000000
   0.2617162   0.1296124   0.3215528  -0.0052636   0.8082560  -0.8878871
  -0.4586353  -1.0916470   0.0443025   0.0000000   0.0000000   0.0000000
   0.2118872  -0.0295247  -0.0104955  -0.1535938  -0.5761743  -0.1013432
  -0.2732894   0.3540582  -0.0992925   0.0000000   0.0000000   0.0000000
  -0.2089896  -0.2294139   0.0271092   0.0938686  -0.1595234   0.7627824
  -0.4934186   0.0902695  -0.9958047   0.0000000   0.0000000   0.0000000
   0.0124955  -0.0797111   0.1579343   0.3974108  -0.6817915   0.6306535
   0.2586785  -0.1937566  -0.6039632   0.0000000   0.0000000   0.0000000
   0.2930705  -0.0854458   0.0257466  -0.0384900  -0.6530588   0.5876615
   1.8448596   0.0891479  -0.0909386   0.0000000   0.0000000   0.0000000
  -0.0416086   0.0549982   0.0302753  -0.2507330   0.3497900  -0.4467249
  -0.5366922  -0.5414743   0.2895201   0.0000000   0.0000000   0.0000000
   0.0603822   0.2586323   0.0362705  -0.2452548   0.4662586  -0.0664979
   0.9854261  -0.4615080   0.3380423   0.0000000   0.0000000   0.0000000
   0.0341738  -0.0152968   0.0306223   0.6787797   1.0685113   0.9759520
  -0.9159391   0.7331574  -0.9407547   0.0000000   0.0000000   0.0000000
  -0.1977830  -0.1009461  -0.1435387  -0.6505933  -0.4811561  -0.0257656
   0.0005386   0.1721488   0.3879317   0.0000000   0.0000000   0.0000000
   0.2741365   0.1853853   0.3409868   0.8794329  -0.2018740   0.5180522
  -0.2435915   0.1778393   0.6358173   0.0000000   0.0000000   0.0000000
   0.1359849  -0.1796721  -0.0134991   0.3505091  -0.4872087   0.3497361
   0.2385702  -0.3425911  -0.3657604   0.0000000   0.0000000   0.0000000
   0.0903426  -0.1177669  -0.4574856   0.2082443   0.3941901  -0.0143959
   0.4557810   0.9186073  -0.4872589   0.0000000   0.0000000   0.0000000
  -0.0741874   0.1785553   0.2860186   1.1698406  -1.0695201   0.2855084
  -0.0095323   0.7859280  -1.1549390   0.0000000   0.0000000   0.0000000
   0.4606405  -0.0843771  -0.0356221   1.4810838  -0.1017740  -0.0673926
   0.9619203  -1.1046698  -0.3143433   0.0000000   0.0000000   0.0000000
   0.1476966   0.1045479  -0.0508619   0.4114708   0.6230308   0.3697965
   0.0070860  -0.1879715  -0.5068647   0.0000000   0.0000000   0.0000000
  -0.1840475  -0.1437047   0.0955542  -0.3886054  -0.2809008   0.1934617
   0.1877487  -0.4048612  -0.1877121   0.0000000   0.0000000   0.0000000
  -0.0108778  -0.0388258   0.2348097   0.2670788  -0.3423811   0.2603585
  -0.0393541   0.0302845   0.1478244   0.0000000   0.0000000   0.0000000
  -0.1871844  -0.0839746   0.2042250  -0.2504027  -0.4128588   0.0344845
  -0.6484428  -0.3264828  -0.3452256   0.0000000   0.0000000   0.0000000
  -0.1431423  -0.2582456   0.1062210   0.5600155  -0.8665698  -0.5848979
  -0.5835838   0.2420524  -0.1592052   0.0000000   0.0000000   0.0000000
  -0.0106404   0.1064957   0.0369477   1.4988340  -0.5471163   0.3556397
   1.4036391   2.0859717   0.0233155   0.0000000   0.0000000   0.0000000
  -0.1850432  -0.1211516  -0.1971542  -0.1645583  -0.1358269  -0.1371276
  -0.4774674  -0.0240893  -0.4372566   0.0000000   0.0000000   0.0000000
  -0.1046662   0.1206107   0.2045665  -0.1953790   0.2991850   0.6500649
  -0.0156989   0.1088360   0.0571564   0.0000000   0.0000000   0.0000000
  -0.1174448  -0.1792259  -0.1624840  -0.0374746  -0.3775234  -0.2247906
   0.1606703  -1.1571685  -1.3379995   0.0000000   0.0000000   0.0000000
   0.2526086   0.2323029   0.3831412   0.5713374   0.6460915   1.0032020
   0.8039223   0.6607887   0.4583381   0.0000000   0.0000000   0.0000000
  -0.0564016   0.1059754  -0.0188697  -0.6645105   0.0448428  -0.8160679
   0.1162745  -0.7294314   0.1541103   0.0000000   0.0000000   0.0000000
  -0.0491521   0.1247455  -0.1502876  -0.3726517   0.5305400   0.2715160
   0.2279183  -0.0065812  -0.7569773   0.0000000   0.0000000   0.0000000
  -0.3532104   0.0415172  -0.1479405  -0.0573731   0.0604615  -0.2224836
  -0.8912983   0.0360394   0.1130321   0.0000000   0.0000000   0.0000000
  -0.0359160  -0.3139135   0.0300564   0.6484089  -0.9672586  -0.1029402
  -0.7031129  -0.9074354   0.3879362   0.0000000   0.0000000   0.0000000
   0.1251386   0.0738889  -0.0560742  -0.0933635  -0.1142726  -0.0639700
  -0.1330971   0.0682010  -0.1000443   0.0000000   0.0000000   0.0000000
   0.1256339  -0.0922182   0.0638020   0.3905638   1.1043699  -0.9171844
   0.4964447   0.7751242   0.0543936   0.0000000   0.0000000   0.0000000
  -0.0533859  -0.0793753  -0.1058177   0.2335387  -0.8262088  -0.9318976
  -0.2288622   0.1230255  -0.3937236   0.0000000   0.0000000   0.0000000
  -0.1249834   0.2585619  -0.0110737   0.6819694   0.7884916   0.7074950
  -0.8367008   0.5960040  -0.5144457   0.0000000   0.0000000   0.0000000
  -0.0942206  -0.1913993  -0.0981901   0.1200974  -0.2392589   0.1577868
  -0.4143498   0.0312527  -0.5516174   0.0000000   0.0000000   0.0000000
   0.0254295  -0.1388684   0.2127933   0.2703197  -0.0802507   1.0791293
   0.9929774  -0.7801780  -0.1751867   0.0000000   0.0000000   0.0000000
   0.1477070  -0.2628121  -0.0261703  -0.1081758   0.4812198   0.7267090
   0.7034532  -0.4691663  -0.8781359   0.0000000   0.0000000   0.0000000
  -0.1102659  -0.0171079   0.2020177   0.9475980   0.4402708   0.3638840
  -0.1256472  -0.3171307   1.8371918   0.0000000   0.0000000   0.0000000
  -0.0003966   0.1521953  -0.2175557   0.1641086   0.6402110   0.1690625
  -0.5788969  -0.3074731   0.0408457   0.0000000   0.0000000   0.0000000
  -0.0631028   0.2791968  -0.2059875   0.4595501  -1.7053257   0.7501964
  -0.7177505   0.2280308   0.3168916   0.0000000   0.0000000   0.0000000
   0.0264190   0.1046903   0.1351534  -0.0654199   0.3280973  -0.4126539
   0.5442923  -0.0144950   0.7558708   0.0000000   0.0000000   0.0000000
  -0.0979486  -0.2856027   0.0363582  -0.6841808  -0.8577983  -0.2002453
   1.1623938  -0.1564858   0.4252853   0.0000000   0.0000000   0.0000000
  -0.0035596  -0.1112472  -0.0477108   0.2754537   0.4447237  -0.3606148
   0.0316917  -0.0953292   0.2329371   0.0000000   0.0000000   0.0000000
   0.0198000  -0.0842072  -0.2271509  -0.3752430   0.0852238  -0.7440383
   0.2000225   0.1952816  -0.7886080   0.0000000   0.0000000   0.0000000
  -0.0674611   0.0441084   0.2987375  -0.0507315  -0.0454117  -0.4547145
  -0.0341971   0.1335821   0.4102924   0.0000000   0.0000000   0.0000000
  -0.0765747  -0.1439171   0.2382759   0.4516526  -0.2670594  -0.1391716
  -0.0500111   0.6551450   0.1356409   0.0000000   0.0000000   0.0000000
   0.2135838   0.2251914   0.0925261   0.1004914   0.6932180   0.2182827
   0.3784193  -0.3021286  -0.2937992   0.0000000   0.0000000   0.0000000
   0.3636821  -0.0197693  -0.0081379   0.1119903  -0.1896999   0.0613889
   0.2149217  -0.7225960   0.2260425   0.0000000   0.0000000   0.0000000
   0.0195352  -0.1881740   0.2371614  -0.4370820  -0.8866503  -0.3820333
  -0.5474594   0.6050766   0.0896919   0.0000000   0.0000000   0.0000000
  -0.0954870  -0.5177670  -0.0064485  -0.1037881  -0.5250944  -0.0457976
  -0.0348993   0.1231414   0.1706302   0.0000000   0.0000000   0.0000000
  -0.2723095   0.1237833   0.2818416   0.2339346   0.4552657  -0.6109393
   1.7870218   0.6444724   0.1675427   0.0000000   0.0000000   0.0000000
   0.3251501  -0.0075478  -0.0882011   0.5577943   0.2318871  -0.1700680
  -0.0288201   0.1096298  -0.3564784   0.0000000   0.0000000   0.0000000
  -0.1895008  -0.0355547   0.2410504  -0.0484051   0.0001152   0.1364271
  -0.0963379   0.0225262   0.0360255   0.0000000   0.0000000   0.0000000
  -0.0273754   0.0714844   0.3904384  -0.8427089  -0.7424902   0.8165096
  -0.2245825  -0.2076815   0.1832902   0.0000000   0.0000000   0.0000000
  -0.2159572  -0.0173402  -0.0244304   0.2419968  -0.0332961   0.5069261
   0.3138317  -0.4739181   0.5652216   0.0000000   0.0000000   0.0000000
  -0.2127136   0.1803561   0.2471074   0.5960029   0.7574395   0.9039323
  -0.4360157   0.3645003   0.2008429   0.0000000   0.0000000   0.0000000
  -0.0682642  -0.3124614   0.0304567  -0.1208045  -0.4594379   0.2249119
   0.7411949  -0.4019747   0.2999569   0.0000000   0.0000000   0.0000000
  -0.0687206   0.1410199   0.1692281  -0.2607429   1.0270818  -1.0039336
   0.2445767  -0.5260350   1.1147083   0.0000000   0.0000000   0.0000000
   0.0785946   0.1577482  -0.0547737  -0.3081806  -0.3226079  -0.0919727
  -0.0039378  -0.4464964   0.0242366   0.0000000   0.0000000   0.0000000
  -0.1105565   0.0299092  -0.0354442   0.0129730   0.7445532   0.3818141
   0.0715007   0.5445016   0.3699663   0.0000000   0.0000000   0.0000000
  -0.2123537   0.1465722   0.1759841   0.0954264   0.2920374   0.2101170
  -0.3258525   1.1474783   0.1656770   0.0000000   0.0000000   0.0000000
  -0.0518301  -0.1748239   0.0668506  -0.0554715  -0.0319858  -0.0441274
   0.0216524  -0.1145789   0.0214991   0.0000000   0.0000000   0.0000000
  -0.0709260  -0.1062296   0.0291419   0.3918876   0.7349319  -0.1493819
  -0.1381267  -0.2587976  -0.7182847   0.0000000   0.0000000   0.0000000
   0.3306820  -0.0291690   0.1429053   0.1171032  -0.5802915  -0.0582868
  -0.2839806   0.3113384   0.1965874   0.0000000   0.0000000   0.0000000
   0.0787103   0.1804603  -0.0009484  -0.1028180   1.3123715   0.1245135
   0.4822135  -0.5561318  -0.2035858   0.0000000   0.0000000   0.0000000
  -0.0789813   0.1426960   0.1187623   0.0209867   0.3858739   0.2436628
   0.1412930  -0.0824348  -0.0057912   0.0000000   0.0000000   0.0000000
  -0.0262259  -0.0379770  -0.1148109   0.1430833  -0.0133508  -0.7763002
   0.4050834  -0.5219117  -0.9246595   0.0000000   0.0000000   0.0000000
  -0.2524364  -0.2207303  -0.0481852  -1.6290573  -0.1594249   0.2460350
  -0.6786639  -0.9307960   0.4619101   0.0000000   0.0000000   0.0000000
  -0.1491758  -0.1807372  -0.2587718   0.1669418  -0.4158561  -0.7971988
   1.0225969  -0.7018467  -0.2725141   0.0000000   0.0000000   0.0000000
  -0.2260416  -0.1962789   0.1150403  -0.3181976  -0.1107448   0.1587691
  -0.8305526   0.7415164   0.9790263   0.0000000   0.0000000   0.0000000
   0.1835457   0.1930465   0.0789981   0.3766405   1.0218108  -0.2078727
  -0.2410024  -0.0999852   0.1161597   0.0000000   0.0000000   0.0000000
  -0.2943157  -0.0484399   0.0133260  -0.2520506  -0.0651016  -0.3984722
  -0.5251863  -0.0647772  -0.3086492   0.0000000   0.0000000   0.0000000
   0.2447678  -0.0051544  -0.0995487   0.1896902   0.0547399  -0.1261428
   0.3061167  -0.0862676  -0.4489001   0.0000000   0.0000000   0.0000000
   0.0233083   0.0669385  -0.3080571  -0.2589193  -0.4550253  -0.0922194
  -0.1350306  -0.3948794  -0.0823135   0.0000000   0.0000000   0.0000000
  -0.2955560  -0.3918908  -0.2101487   0.4619882  -1.0635049  -0.6840592
  -0.2163801  -0.5308204  -0.4607917   0.0000000   0.0000000   0.0000000
  -0.0841620  -0.0552260  -0.0135607  -0.4086575  -0.5261976   0.8825889
  -0.4278987   0.5456067   0.1661044   0.0000000   0.0000000   0.0000000
  -0.2344397  -0.0112636  -0.3263112  -0.7992947  -0.2686437   0.0365918
  -0.2079655   0.1657076  -0.2829024   0.0000000   0.0000000   0.0000000
  -0.0879507   0.2651773   0.1708753  -0.5588601   0.0172738   0.4804878
   0.3990181   1.3071925  -0.0362622   0.0000000   0.0000000   0.0000000
   0.0332349  -0.0055210   0.1642263  -0.0063260  -0.5945185   0.1756272
   0.7019561   0.0966112  -0.1597982   0.0000000   0.0000000   0.0000000
  -0.0470971   0.2311218   0.0067841  -0.4523353   0.2623455  -0.0660586
   0.1882643  -0.3484990  -0.4098078   0.0000000   0.0000000   0.0000000
  -0.0055944  -0.0487701   0.2307470   1.3508064  -0.6940525   1.3853284
   1.2926279   0.8289628  -1.0723688   0.0000000   0.0000000   0.0000000
  -0.2978445  -0.0759640   0.0027692  -0.0382382  -0.0937343  -0.1481115
   0.3894912  -0.0011061   1.1416949   0.0000000   0.0000000   0.0000000
   0.1321961  -0.0493459  -0.0394729   0.2778756  -0.1817078   0.3882906
   0.5141569  -0.5247663  -1.1622737   0.0000000   0.0000000   0.0000000
  -0.3843093   0.0342322  -0.0450733  -1.5102939  -1.0530973  -0.1516181
  -0.2433473   0.5129182  -0.2105284   0.0000000   0.0000000   0.0000000
   0.2373928  -0.1314050   0.0910718   0.3897217  -0.1333131   0.2284134
  -0.0445517   0.2403152   0.8121112   0.0000000   0.0000000   0.0000000
   0.1032728  -0.1197162   0.0578449  -1.1624610  -0.4208683  -0.2729972
  -0.8371323  -0.2527709  -0.2680698   0.0000000   0.0000000   0.0000000
   0.0505534  -0.1324021   0.2356037  -0.1403935  -0.9389219  -1.1727779
   0.6243975  -0.5133462   0.8708955   0.0000000   0.0000000   0.0000000
  -0.0052156  -0.1488961   0.1872904   0.3415807  -1.4792133   0.8854702
   0.6185648   0.7300341   0.2716985   0.0000000   0.0000000   0.0000000
   0.0022719   0.0532604  -0.0070613   0.3849726  -0.6705626  -0.6876511
  -0.8702311  -0.2623012  -0.1226955   0.0000000   0.0000000   0.0000000
   0.0317205  -0.3255437  -0.0065120  -1.0648893  -0.2216396  -0.4411144
   1.1921919  -0.1393635  -0.2682303   0.0000000   0.0000000   0.0000000
  -0.0747069  -0.0429517   0.0165132   0.1795755   0.2125055   1.2783074
  -0.2974008   1.1124498  -0.0124992   0.0000000   0.0000000   0.0000000
   0.0463884   0.0968765  -0.0387021  -0.3328927  -0.5651828  -0.3003135
  -0.3562893   0.3253732   0.3551808   0.0000000   0.0000000   0.0000000
   0.0634471  -0.2666150   0.0785748   0.2814456   0.5734174   0.3606650
  -0.5953653  -0.3915065  -1.3770740   0.0000000   0.0000000   0.0000000
  -0.2181191  -0.2381641   0.0122214   0.9017902   0.5097943  -0.8272210
  -0.9748449  -0.5955044   0.6753113   0.0000000   0.0000000   0.0000000
   0.2208446  -0.0195319  -0.2731260  -1.0658223  -0.9696239   1.4303317
  -0.7226717  -0.3558003  -0.0891186   0.0000000   0.0000000   0.0000000
   0.2020377  -0.2980479   0.2434198   0.4100776  -1.0598125   0.4153700
  -0.5433755  -0.4407716  -0.0806193   0.0000000   0.0000000   0.0000000
  -0.0100040   0.0644849   0.1093775   0.3170505  -0.6213194  -0.3129781
  -0.7239338   0.1057844  -0.7184586   0.0000000   0.0000000   0.0000000
  -0.4218331  -0.0545707  -0.1815737  -0.6556516   0.3383390  -0.8395179
  -0.5705598  -0.2937549  -0.2853989   0.0000000   0.0000000   0.0000000
  -0.0332214  -0.1905138  -0.0675737   0.1745164  -0.3146532  -0.0853024
  -0.5705466  -0.1998104  -0.1571052   0.0000000   0.0000000   0.0000000
   0.2169919   0.0974506   0.2330748   0.1433932  -0.2194578   0.3119112
  -0.2089250   1.2983139   0.7603957   0.0000000   0.0000000   0.0000000
  -0.1653413  -0.0118458   0.0225179   0.6229867   0.0604363   0.7918705
  -0.0688473  -0.6496976  -0.7590430   0.0000000   0.0000000   0.0000000
   0.3473026   0.0933338   0.1582982  -0.4598760  -0.3989318  -0.0852021
  -0.5374895  -0.8382060   0.6686310   0.0000000   0.0000000   0.0000000
   0.1735310   0.2284531   0.4551677   0.5314842  -0.4850635   0.0418839
   0.2332212  -1.5379157  -0.2256335   0.0000000   0.0000000   0.0000000
   0.1110321  -0.0913419  -0.2241537   0.5473740  -0.5996735  -0.4331131
   0.2407226   0.5572648   0.5345978   0.0000000   0.0000000   0.0000000
  -0.1189935  -0.1239343  -0.0973055  -0.0088744   0.2134627  -0.4151805
  -0.3983302  -0.2798085  -0.2884544   0.0000000   0.0000000   0.0000000
   0.0457190  -0.3279309  -0.0359499   0.6598408  -0.5187061  -0.1968229
  -0.2211661   0.3675739   0.5114284   0.0000000   0.0000000   0.0000000
   0.0378106   0.3438816  -0.1655210  -0.6685766  -0.1840711  -0.9385045
   0.2661776  -0.9517297  -0.5330332   0.0000000   0.0000000   0.0000000
  -0.0027424  -0.1123118   0.0197883  -0.3304428   0.0137901  -0.5302541
   0.2117788   0.2712712   0.1095074   0.0000000   0.0000000   0.0000000
   0.1123184   0.0092558  -0.1427164  -0.0429193   0.6173904   0.6955281
  -0.6198634   0.4868691  -0.2883940   0.0000000   0.0000000   0.0000000
   0.0284300  -0.0231669  -0.1459704   0.6646334  -0.4504630  -0.2785636
  -0.0542098  -0.3078320   0.4646742   0.0000000   0.0000000   0.0000000
  -0.0803485   0.1403219  -0.0845090  -0.6189559  -0.8957039  -0.3676895
  -0.2713927   0.0132231  -0.3493805   0.0000000   0.0000000   0.0000000
  -0.4713713  -0.0966661  -0.0425356  -0.8602567  -0.0539106   0.2224835
  -0.6615293  -0.3846924   0.2670872   0.0000000   0.0000000   0.0000000
  -0.0902217  -0.3870486   0.1301509   0.2735166  -0.0974697   0.4037018
   0.1212555   0.2132148  -0.1474977   0.0000000   0.0000000   0.0000000
  -0.1476684  -0.0032671  -0.1876899   0.0723683   1.6196097   0.4635051
   0.1266269  -0.2803425   0.5334451   0.0000000   0.0000000   0.0000000
   0.1723807  -0.2682083  -0.1730852   0.2253368   0.2147590  -0.2133340
   0.5584126  -0.4853160  -0.3898601   0.0000000   0.0000000   0.0000000
   0.3386529   0.0126127   0.2824107  -0.5909947   0.2247884   0.2862412
   0.6256808  -0.0579038   1.0099826   0.0000000   0.0000000   0.0000000
  -0.1416670  -0.1051875  -0.0434684   0.6260919   0.7122010  -0.0356891
  -0.1281140  -0.5491092   0.1149836   0.0000000   0.0000000   0.0000000
   0.0241237   0.0311157   0.0405491  -0.0239929  -0.3326000  -0.8346806
   0.0728732  -0.0452854   0.0416268   0.0000000   0.0000000   0.0000000
   0.0244481  -0.3493506   0.0467854   0.4516685   0.4005449   0.2453359
   0.7235709  -0.2551989  -0.5811223   0.0000000   0.0000000   0.0000000
  -0.2986556  -0.2358521   0.0974316  -0.3202315  -0.2697740   0.1030201
  -0.2434936   0.0908412   0.0804410   0.0000000   0.0000000   0.0000000
   0.1772744  -0.1676082   0.3324784   0.2127650  -0.2674580   0.4697129
   0.1694339   1.1990148   0.2992049   0.0000000   0.0000000   0.0000000
  -0.0583827  -0.0709917  -0.1364451   0.6515206   0.0262216  -1.6348507
   0.0678471   0.7243275  -0.4815832   0.0000000   0.0000000   0.0000000
   0.0406339   0.1669468  -0.0556674  -0.5472670   0.9622507   1.0188152
  -0.5754777  -0.9120137   0.4081316   0.0000000   0.0000000   0.0000000
  -0.0552849   0.4361249  -0.1753138  -0.7446007  -0.3895407   0.3399493
  -0.4616845  -0.0124852  -0.1312000   0.0000000   0.0000000   0.0000000
   0.0809642   0.1277714   0.1413593   0.5907608  -0.0589886   0.1446322
  -0.2585583  -0.4029229   0.4598993   0.0000000   0.0000000   0.0000000
  -0.0105183  -0.2023128  -0.0835174   0.8116349   0.6359029  -0.1907784
   0.0427049  -1.4034736   0.2696409   0.0000000   0.0000000   0.0000000
   0.2832214   0.1952707   0.2564930   0.5470105  -0.5145327  -0.0841517
   0.8567275  -0.0746017   0.0354947   0.0000000   0.0000000   0.0000000
  -0.0558805  -0.0513037  -0.0897054  -0.7893134  -0.1690325   0.5672183
   1.1986501   0.0025999  -0.7571119   0.0000000   0.0000000   0.0000000
  -0.1151420  -0.2229625  -0.4423621  -0.4595078  -0.2588641  -0.0741501
   0.4365563   0.2776376  -0.1905030   0.0000000   0.0000000   0.0000000
  -0.0796683   0.1018123  -0.1931092  -0.6084594   1.1023595  -0.3177831
  -0.0393634  -0.4579654  -1.2703770   0.0000000   0.0000000   0.0000000
   0.1812993   0.0017167  -0.2371144   0.3102256   0.3047305  -0.2290712
   0.6185792  -0.4505561   0.2483128   0.0000000   0.0000000   0.0000000
   0.1764756   0.0502294   0.2120186   0.5297011  -0.6031929  -0.3026475
   0.0513729  -0.0618649  -0.3363031   0.0000000   0.0000000   0.0000000
   0.0474629  -0.2292381  -0.0952684   0.3630991  -0.0638623  -0.6152099
   0.0819114  -0.0985193  -0.7768345   0.0000000   0.0000000   0.0000000
   0.1626162   0.0532234   0.0763101  -0.4741421  -0.2394635  -0.6860302
   0.0435254  -0.2091143   0.7604391   0.0000000   0.0000000   0.0000000
   0.1408186  -0.2858606   0.1561214  -0.3847752   0.1378637  -0.0731788
  -0.2039461  -0.3969525   0.0981897   0.0000000   0.0000000   0.0000000
  -0.3134199   0.1031956   0.0689860   0.0623242  -0.1674998  -0.0949440
  -1.0378704   0.6591948   0.3197405   0.0000000   0.0000000   0.0000000
   0.1672103  -0.2000729   0.1988618   0.4737537  -0.6440563  -0.5248154
  -0.3488223  -1.1300124  -0.9147974   0.0000000   0.0000000   0.0000000
   0.1915812   0.0434001   0.0125877   0.0117715   0.4583708  -0.6266125
   0.9423776   0.0905280  -0.9421641   0.0000000   0.0000000   0.0000000
  -0.0216466   0.1476913  -0.1553817  -0.1918734  -1.6964742  -2.0275521
   0.0902485   0.8978090  -1.5390016   0.0000000   0.0000000   0.0000000
  -0.1967310   0.1013803   0.0583174  -0.2732299  -0.6096910   0.1975281
   0.3805071   0.7463881   0.6273319   0.0000000   0.0000000   0.0000000
   0.3130076   0.2559612   0.0739132  -0.0867486  -0.3734806   0.1876118
  -0.1136268   0.7674899   0.3760731   0.0000000   0.0000000   0.0000000
  -0.1622839  -0.4992649   0.1233157  -0.5494242   0.1421198  -0.2690114
  -0.1090505  -0.0129127  -0.3568270   0.0000000   0.0000000   0.0000000
   0.2436092   0.1403801  -0.0522868  -0.5892604  -0.0573694  -0.0035177
  -0.6315995  -0.3590392   0.1153431   0.0000000   0.0000000   0.0000000
  -0.1940491  -0.3095532   0.1628538  -0.3298831  -0.7958132  -0.8002070
   0.1097087  -0.4764178  -0.9334368   0.0000000   0.0000000   0.0000000
   0.0464053  -0.1557626  -0.4081650  -0.2468409   1.1890243   0.1799227
  -0.1190902   0.1927688  -0.5360101   0.0000000   0.0000000   0.0000000
   0.2704675  -0.0669658  -0.0247401   0.6728552  -0.3900299  -0.1735173
  -0.1547413  -0.4938372   0.8686639   0.0000000   0.0000000   0.0000000
  -0.1015643  -0.2417940  -0.5036914   0.2952408  -0.4774041  -0.8539505
  -0.9387826   1.0032182  -0.4828708   0.0000000   0.0000000   0.0000000
   0.0585490   0.0862739  -0.0715613  -0.3731890   0.4941411  -1.6046534
  -0.1398165   0.3114442  -1.0515816   0.0000000   0.0000000   0.0000000
  -0.3048291  -0.3700652   0.1624407  -0.0073294   0.5609886   0.6523286
  -1.4246370  -0.3473451   0.2070341   0.0000000   0.0000000   0.0000000
  -0.0092780  -0.0712181  -0.0956687  -0.4795960   0.7130930   0.8957850
   0.5657449  -0.1262288   0.1126868   0.0000000   0.0000000   0.0000000
   0.0041270   0.0881918  -0.0242622  -0.0178902  -0.1244211  -0.1661035
   0.0298991   0.1727305   0.3121635   0.0000000   0.0000000   0.0000000
   0.1619158  -0.0897912   0.3608321  -0.2952624   0.1661491  -0.0336558
  -0.4992353  -0.4865602  -0.0951474   0.0000000   0.0000000   0.0000000
   0.0972918   0.1190082   0.0743003   0.3473102   0.5818419   0.8242743
   0.3616446  -1.0668125  -0.4959684   0.0000000   0.0000000   0.0000000
  -0.2947799   0.0938830   0.2477109  -0.4104088  -0.9655419   0.3940231
  -0.2434514  -0.5341066  -1.1591737   0.0000000   0.0000000   0.0000000
  -0.0493192  -0.1434200  -0.2017785   0.1761809  -0.5682598   0.5195934
   0.7526057  -0.2522813  -1.0352272   0.0000000   0.0000000   0.0000000
   0.2738250   0.1578510  -0.2539451   0.5753055  -0.0415873  -0.4276970
  -2.4954805  -1.6906013   0.9139298   0.0000000   0.0000000   0.0000000
   0.0683062   0.2238678   0.1324901  -0.0589154   0.3928747   0.0944607
   0.1295745  -1.0511920   0.9207990   0.0000000   0.0000000   0.0000000
  -0.2243785   0.0195402   0.1055044  -0.8605721   0.6424494   1.3796374
   0.7454200   1.0923666  -0.3982161   0.0000000   0.0000000   0.0000000
   0.1319692   0.1600461   0.0714767  -0.0251170   0.6080465  -0.1099937
   0.3479721  -0.0840591   0.4238533   0.0000000   0.0000000   0.0000000
   0.3256142  -0.0332298  -0.0200833   0.3152407   0.2846386   0.0512697
   0.1633857  -0.3539739   0.1425329   0.0000000   0.0000000   0.0000000
  -0.2448489   0.1215582   0.0566538  -0.2039882   0.1831055   0.0576626
  -0.2045751  -0.0120515   0.0677186   0.0000000   0.0000000   0.0000000
   0.1430794   0.3945138   0.0036038   0.0340429   0.8967783   0.0565250
  -0.2759936   0.2411767  -0.1057698   0.0000000   0.0000000   0.0000000
  -0.2967341   0.0125011   0.0178025  -1.3974999   0.3148274  -0.3255990
  -0.1532951  -0.2488687   0.6121391   0.0000000   0.0000000   0.0000000
  -0.3192928  -0.0095600   0.0997038   0.2430164   0.1611614   0.2882932
  -1.0032688   0.5639936  -0.4606880   0.0000000   0.0000000   0.0000000
  -0.0159303   0.6863788  -0.0526279  -0.0517341  -0.7962651   0.6105377
   0.2283679   0.3594785   0.1266317   0.0000000   0.0000000   0.0000000
   0.1305962  -0.0986330  -0.1780219  -0.3647782   0.0849455  -0.2392800
   0.0944834   1.2226151   0.2632235   0.0000000   0.0000000   0.0000000
   0.1654085  -0.2267124   0.1789984   1.7169576  -0.0823192   0.0912453
  -0.3426198  -0.0293155  -0.4341339   0.0000000   0.0000000   0.0000000
   0.1831372  -0.0469370   0.0287677  -0.8414434   0.0587246  -1.0133625
   0.5411543  -0.7735463  -0.2840009   0.0000000   0.0000000   0.0000000
   0.0547166  -0.0448251   0.0312421  -0.0646009  -0.1933339   0.1003648
   0.1505178  -0.1178539   0.4365895   0.0000000   0.0000000   0.0000000
   0.0888811   0.2067402   0.1016852   0.1821948   0.0233362   0.1271120
   0.2678956   0.0939298   0.1043678   0.0000000   0.0000000   0.0000000
   0.2763249   0.2771865  -0.2960782   0.2618933   1.0346544   0.3760063
   0.2769432   1.2209633   0.4691676   0.0000000   0.0000000   0.0000000
   0.2811937   0.1412877  -0.0756630   1.4426692   1.1661583   0.0559246
  -1.0555822   0.8746027  -0.4424911   0.0000000   0.0000000   0.0000000
   0.3805468  -0.0745730  -0.4044678  -0.4827606  -1.7571860  -0.6960781
   0.3515279   0.1143497  -0.2550476   0.0000000   0.0000000   0.0000000
   0.3017696   0.0322471  -0.0962418  -0.3661297  -0.1038142  -0.4337797
   0.4687976  -0.5250818  -0.2547501   0.0000000   0.0000000   0.0000000
  -0.4411421   0.0223899  -0.0773345   0.4436947   1.4281030   0.1437424
  -0.4142662  -0.2872311  -0.1009900   0.0000000   0.0000000   0.0000000
  -0.3143910   0.1844979  -0.4898361   0.5903411   1.1168078   0.8780618
  -0.2035118   0.6235908   0.4651591   0.0000000   0.0000000   0.0000000
   0.2181811  -0.0340872  -0.0311700   0.2599477  -0.2140853   0.1189641
   0.3556876   0.2925330  -0.1220381   0.0000000   0.0000000   0.0000000
   0.0584060   0.1124771  -0.1332907  -0.5897983  -0.5591424   1.1574908
   0.4396618  -0.6126512  -0.2252104   0.0000000   0.0000000   0.0000000
  -0.1042163  -0.2114187  -0.1065855  -0.4611691  -0.3385297  -0.0651226
   0.2375578   0.1796419  -0.0374185   0.0000000   0.0000000   0.0000000
   0.0814258  -0.1152980   0.2502032  -0.5932778   0.2481229  -0.7022498
  -0.5803631  -0.0281118  -0.2280182   0.0000000   0.0000000   0.0000000
   0.1694987  -0.1348159   0.0528617  -1.0012216   0.2071844   0.1645012
   0.3265124   0.3901331   0.9125991   0.0000000   0.0000000   0.0000000
   0.2873119  -0.1695975  -0.0578503   0.6423438   0.3132134  -0.1117829
  -0.3800808  -0.3005507   0.0021493   0.0000000   0.0000000   0.0000000
   0.0202219  -0.1776780  -0.2572523  -0.3166230  -0.0711415   0.3754636
  -0.1376118  -0.5166354  -0.1541703   0.0000000   0.0000000   0.0000000
  -0.0440447  -0.3760287  -0.2639703   0.8381258   0.2481757  -0.3989043
   0.4590750   0.0509660  -0.1708280   0.0000000   0.0000000   0.0000000
  -0.1206693   0.1590454  -0.1504284   0.4122770   0.3110575   0.3630200
  -0.3356563   0.0655859  -0.3611694   0.0000000   0.0000000   0.0000000
  -0.0690402   0.0467314   0.3609551  -0.2435562   0.2394487   0.4732432
  -0.3947778  -0.1756313  -0.0427360   0.0000000   0.0000000   0.0000000
   0.2458556   0.0402652  -0.1259302   0.0211937  -0.5017066  -0.4430769
  -0.4011972  -0.3214810   0.6382373   0.0000000   0.0000000   0.0000000
  -0.0317220   0.2273819   0.0619423   0.3919315   0.5112787   0.4992695
   0.5393968   0.4137965  -0.1752843   0.0000000   0.0000000   0.0000000
   0.2060867  -0.2498779  -0.1364238   0.5859567   0.0379457  -0.2261278
   0.0502262  -0.3622880  -0.2010647   0.0000000   0.0000000   0.0000000
  -0.0944698  -0.0439968   0.1626296  -0.0895764  -0.0822713   0.2559418
  -0.6558704   0.0300318  -0.5544833   0.0000000   0.0000000   0.0000000
   0.2836594   0.0517455   0.0629171  -0.4538011   0.0185659  -0.0192622
   0.1661461   0.1868003   0.2348862   0.0000000   0.0000000   0.0000000
   0.0714676  -0.0656784   0.0345779   0.6972148  -0.3917162   0.7182436
  -0.6585422   0.0736299  -0.6589544   0.0000000   0.0000000   0.0000000
   0.0093795  -0.2069870   0.1432343  -0.8339253   0.2585487   0.2891847
   0.2997023  -0.5751839   0.7161370   0.0000000   0.0000000   0.0000000
  -0.1762733   0.0275848  -0.1338344   0.6748277   0.1277988   0.1482465
  -1.0916456  -0.3179561  -0.1730564   0.0000000   0.0000000   0.0000000
   0.3991227   0.0363793  -0.2742512   0.2813799   0.3017862   1.0186310
   1.2268206   0.0724522  -0.3670520   0.0000000   0.0000000   0.0000000
   0.1643457   0.2502577  -0.1272109  -1.2742086  -0.6558555   0.4524960
  -0.1523154  -0.3843806  -0.0496094   0.0000000   0.0000000   0.0000000
  -0.1466954   0.0180800  -0.2881136  -0.0696460  -0.3823628  -0.0991673
   0.6812659  -0.4334551   0.2776018   0.0000000   0.0000000   0.0000000
  -0.1044291   0.0568033   0.0682788  -0.2472465   0.4535613  -1.4626376
  -1.2174411  -1.3119301   0.7383914   0.0000000   0.0000000   0.0000000
  -0.1264070   0.0111988   0.5094212   0.4686148   0.0057608   1.4506037
  -0.4008270   0.0052321   0.3711820   0.0000000   0.0000000   0.0000000
   0.0106367  -0.1063814  -0.0095863  -0.1439214   0.6774571  -0.2065725
   0.4790281  -1.0601383  -0.1291643   0.0000000   0.0000000   0.0000000
  -0.0060455  -0.0887611   0.2496201   2.2846661   0.4557362   0.1187878
   1.0638887  -0.6717985  -0.2577696   0.0000000   0.0000000   0.0000000
   0.0363604  -0.2385902  -0.1839705  -0.8763469  -0.1518863   0.2458622
  -1.5994032  -0.4937451  -1.3410692   0.0000000   0.0000000   0.0000000
   0.0235537  -0.0201336   0.1992979   0.6455861  -0.4915694   1.1035639
  -0.5145644   0.4101219   0.9528551   0.0000000   0.0000000   0.0000000
   0.3857197  -0.0319436  -0.0686629  -0.7068639   0.8222379  -0.4519647
  -0.2733619   1.4160318   0.1997392   0.0000000   0.0000000   0.0000000
   0.0279348   0.1534642   0.3237109  -0.0471109  -0.6004109  -0.1815811
   0.9173899   0.3640670   0.0631016   0.0000000   0.0000000   0.0000000
  -0.3926337  -0.1900598  -0.1288574  -0.8584569  -0.0427871  -1.2256429
  -0.6736151   0.1318691   0.0571953   0.0000000   0.0000000   0.0000000
  -0.0265734   0.1722379  -0.2147647   0.0898892  -0.0551314  -0.0649480
  -0.0562728   0.1169171  -0.1510886   0.0000000   0.0000000   0.0000000
   0.0796458  -0.0602135  -0.0362387  -0.5420973  -0.0483271   0.3327432
   0.5480292   1.1469132   0.7352880   0.0000000   0.0000000   0.0000000
  -0.1082790   0.0582336  -0.1112294   0.3799901   0.1312090   0.3770763
  -0.1777548  -0.5541739   0.1109695   0.0000000   0.0000000   0.0000000
  -0.0970319  -0.3055669   0.1449994  -0.0213190  -0.6824522   0.6778919
   0.8291096  -0.4846769  -0.3328826   0.0000000   0.0000000   0.0000000
  -0.0719163  -0.0753639  -0.0064895  -0.7089470   0.0840153  -0.3544604
   0.7336912  -0.0089098  -0.4519867   0.0000000   0.0000000   0.0000000
  -0.2030182  -0.1327593   0.1187321  -0.0791254   0.1448938   0.3257951
  -0.6729150  -0.1122618   0.1893937   0.0000000   0.0000000   0.0000000
   0.0651197  -0.1448100  -0.1421514  -0.1058089  -0.4908612   0.0439173
   0.2878010  -0.4033130  -0.2167290   0.0000000   0.0000000   0.0000000
  -0.2192246  -0.1917669  -0.0268307   0.3469050  -0.4292567  -0.7315750
  -1.3915033  -0.3115765  -0.8618363   0.0000000   0.0000000   0.0000000
   0.0012976  -0.0723645   0.0016677  -0.3022372  -0.3610699   0.0530976
   1.0083118   0.7294546   0.1332221   0.0000000   0.0000000   0.0000000
   0.2130359   0.0413116   0.0791388  -1.3382595   0.3155071  -0.5056487
   0.9167624  -0.9080160   0.2241179   0.0000000   0.0000000   0.0000000
  -0.1271081   0.0596189  -0.2037720  -0.2674668   1.3308517   0.2806731
  -0.6207363   0.0569022  -0.0595010   0.0000000   0.0000000   0.0000000
   0.1326913   0.2558365  -0.0630015   0.8766843  -0.2149410  -0.1441614
  -0.8437699   0.1643560  -0.2501208   0.0000000   0.0000000   0.0000000
   0.4238187   0.3785294  -0.4073369   1.6537823   0.0766601  -0.4987462
   0.6781477   0.7806505  -0.2173348   0.0000000   0.0000000   0.0000000
   0.2651877   0.0365815  -0.0962936   0.0002885   0.6084405  -0.0436165
   0.6571738  -0.0167289  -1.0474219   0.0000000   0.0000000   0.0000000
   0.1831643   0.0901184  -0.1974809   0.3926361  -0.1978478   0.2206169
   0.0754691   0.4726124  -0.3376499   0.0000000   0.0000000   0.0000000
   0.0953099   0.1680961  -0.3467286  -0.0742713  -0.5567413  -0.5709180
   0.0186702   0.3641339   0.6235257   0.0000000   0.0000000   0.0000000
   0.1851208  -0.0388344  -0.1383530   0.2910663  -0.3263100  -0.5944561
   0.2887139  -0.3031592  -0.2732261   0.0000000   0.0000000   0.0000000
  -0.2771096   0.0025244   0.0252643  -0.3029409  -0.3652694  -0.2193421
   0.5332761  -0.0671605  -1.0763918   0.0000000   0.0000000   0.0000000
   0.2126681  -0.0795483  -0.0263675  -1.5378064   0.1651079  -0.1462102
   0.6931259   0.1650833  -1.1553634   0.0000000   0.0000000   0.0000000
   0.2803100   0.0673373   0.3050928   0.7943997   0.7100755   0.6715265
   0.2581812   0.1472023  -0.1827449   0.0000000   0.0000000   0.0000000
  -0.4581986  -0.0503494  -0.1951838  -0.9715035  -0.0799052  -0.2531802
  -0.9787422  -0.1536331   0.1831228   0.0000000   0.0000000   0.0000000
   0.1659997  -0.2750798   0.0686764  -0.5620609   0.7317860   0.6916179
  -1.4866819   0.1715064   0.0668055   0.0000000   0.0000000   0.0000000
  -0.1924410  -0.1300493  -0.1320632  -0.0217643  -0.7507040  -0.3851418
  -0.3516841  -0.3754110   0.3311132   0.0000000   0.0000000   0.0000000
  -0.1414634   0.0559595  -0.1951312  -0.0197827  -0.0278403  -0.1926874
  -0.1544637   0.1182213  -0.0840529   0.0000000   0.0000000   0.0000000
  -0.0737936   0.3698892   0.0802329  -0.6851007  -0.2734244  -0.4687509
  -1.6040681  -1.4658911  -1.4011641   0.0000000   0.0000000   0.0000000
   0.0015373  -0.0795389  -0.0557333   0.1713485   0.4503654  -0.1498106
   0.2359961   0.7428453  -0.0803723   0.0000000   0.0000000   0.0000000
   0.1351678  -0.2786238   0.0907037  -1.1791880   0.2180301  -0.1080189
  -0.4174359   0.0041693  -0.0037569   0.0000000   0.0000000   0.0000000
   0.0223445  -0.1822732   0.1626651  -0.2179359  -0.7382915   0.3112142
  -0.0379588  -0.0991632   0.1207729   0.0000000   0.0000000   0.0000000
  -0.1859067  -0.2029815  -0.0452173   0.1701021  -0.3251298  -0.0432097
   1.4851499   1.0102347   0.3753225   0.0000000   0.0000000   0.0000000
  -0.1422303   0.0270892  -0.5213422  -0.1898879  -0.6405638   0.0533375
  -0.4655906  -0.0386107  -0.6359484   0.0000000   0.0000000   0.0000000
  -0.0426789   0.0387311   0.2739379  -0.5736834  -0.0000175  -0.6271187
  -0.9489412  -1.1354387   0.6833357   0.0000000   0.0000000   0.0000000
   0.0212810   0.4012035  -0.2382491  -0.6842489   0.5411669  -0.0124732
   0.9974950   0.2731328  -0.2880548   0.0000000   0.0000000   0.0000000
   0.0151145   0.2247723  -0.5142273   1.1385548  -0.5083022  -0.0267807
  -0.0051023   0.8726213  -0.1896585   0.0000000   0.0000000   0.0000000
  -0.0776663   0.1836255  -0.0339852   0.0432929  -0.5145613   0.8653577
  -0.6717483   0.8139881   0.5959982   0.0000000   0.0000000   0.0000000
  -0.0703920  -0.1519671   0.0316569  -0.4266476  -0.3429883  -0.4991314
  -0.0452143  -0.0382901   0.3460123   0.0000000   0.0000000   0.0000000
   0.0940621   0.1715414  -0.0004959   0.2211826  -0.1774950  -0.4991468
   0.2798695  -0.1762714   0.5841390   0.0000000   0.0000000   0.0000000
   0.2614781  -0.0139142  -0.0767467   0.3803021  -0.1030970  -0.2216170
   0.3276694   0.1896914   0.0301463   0.0000000   0.0000000   0.0000000
   0.1431126  -0.2571267  -0.4753391  -0.3685751   0.3264064  -0.5714823
   0.3866133  -0.6164601  -1.2037389   0.0000000   0.0000000   0.0000000
   0.2567485  -0.0959534   0.0538019   0.4939201   0.1918531   0.1092756
   0.3078658   0.5149320  -0.2978520   0.0000000   0.0000000   0.0000000
   0.2158256  -0.0860422  -0.2410163   0.8571979  -0.3292950   0.3503579
   0.3827771  -0.2999175  -0.1967328   0.0000000   0.0000000   0.0000000
  -0.0518146   0.3394396  -0.0306382  -1.0610517   0.6246113   1.2833309
  -0.8630034  -0.2224014  -0.7477707   0.0000000   0.0000000   0.0000000
  -0.1280159  -0.1575013   0.0759216   1.1579413   0.1298316   0.6794201
   0.9844674  -0.8856348   0.1782851   0.0000000   0.0000000   0.0000000
  -0.1823652  -0.1832432  -0.1305835   0.1829419  -0.5364947  -0.7575664
  -1.3055388   0.1657065   0.8768052   0.0000000   0.0000000   0.0000000
  -0.0936726  -0.2080801   0.1288986  -0.8760450   0.2856314  -0.0643598
   0.0463356   0.4504208  -0.0638833   0.0000000   0.0000000   0.0000000
  -0.0403330   0.1825545   0.3878862   0.4398083   0.5927924   1.0360942
   0.1708428  -0.0866307  -0.5391133   0.0000000   0.0000000   0.0000000
   0.0203303   0.2211403  -0.4192572   1.1495877   0.7318324   0.0228641
  -0.1131181  -0.9714435  -0.0182144   0.0000000   0.0000000   0.0000000
  -0.1435186   0.0572230  -0.1514390  -0.3799945  -0.4023517   0.2910389
  -0.4015293   0.2861201  -0.0744355   0.0000000   0.0000000   0.0000000
   0.0305031   0.2839023   0.0618722  -0.0844623  -0.4917333  -0.8675488
  -0.0102783  -0.1762002  -0.4917867   0.0000000   0.0000000   0.0000000
  -0.1492431   0.0513641  -0.1758141   1.1485498   0.6944953  -0.0567811
   0.3602934  -0.5771522  -0.7293323   0.0000000   0.0000000   0.0000000
  -0.3390072  -0.2221487   0.1208764   0.0054095   0.0095344  -0.3758843
   0.1660961   0.0241864  -0.1866788   0.0000000   0.0000000   0.0000000
  -0.0424457   0.1970464  -0.0169460  -0.5997570  -0.3947057   0.0521525
  -0.1482840   0.0078116  -0.2025799   0.0000000   0.0000000   0.0000000
   0.1334118  -0.0365019   0.1119227  -0.1165064  -0.2697924   0.7974895
  -0.1362298   0.2022807  -0.1524311   0.0000000   0.0000000   0.0000000
  -0.3762376  -0.0232755   0.1414138  -0.4472555  -0.6282488   0.1842855
  -0.2019886   0.0005482   0.2111103   0.0000000   0.0000000   0.0000000
  -0.1330465   0.1541889  -0.3524711  -0.7471363   0.4832746   0.3103024
  -0.6057648  -0.2620722  -0.8296547   0.0000000   0.0000000   0.0000000
   0.1632088  -0.1324138  -0.4395006   0.6097973  -0.1418483  -0.6121612
  -0.6352412  -0.0308023   0.1958320   0.0000000   0.0000000   0.0000000
   0.1427448   0.0884943   0.4851758   0.2362048  -0.2517399   0.0565378
   0.7862875   1.2175556  -0.3963511   0.0000000   0.0000000   0.0000000
   0.1414610  -0.0386352  -0.2512149   0.1191766  -0.1917066  -0.1296702
   0.2068284   0.0020518  -0.3015999   0.0000000   0.0000000   0.0000000
  -0.0921417   0.2424606  -0.0693375  -0.5178874   0.4278306   1.9098129
   0.5290519  -0.1121363  -1.0949368   0.0000000   0.0000000   0.0000000
  -0.3023824   0.2330486  -0.1140769   0.3745809   0.6985025  -0.0140351
  -0.7007684   0.3808720   0.5349924   0.0000000   0.0000000   0.0000000
   0.0476847  -0.2730695  -0.1833986  -0.5116870   1.4006965   0.6480837
   0.3628123  -0.4192126  -0.5334450   0.0000000   0.0000000   0.0000000
  -0.0620512  -0.3019110  -0.1914198   0.1458634  -0.3225911  -0.0799300
  -0.4583912  -0.1598321   1.4006806   0.0000000   0.0000000   0.0000000
   0.1760024   0.3187449   0.0541822   0.0492820  -1.6451618  -0.7684485
  -1.2471650  -1.8992288  -0.0692899   0.0000000   0.0000000   0.0000000
   0.0215864  -0.3130489  -0.2617440   0.6523046  -0.6950151  -0.1851284
  -0.1287435  -0.5745432  -0.5919608   0.0000000   0.0000000   0.0000000
   0.1535049   0.2760710   0.1285685  -0.0657477  -0.3218657  -0.0295350
  -0.0883727  -0.8016044  -0.0963133   0.0000000   0.0000000   0.0000000
  -0.5931416   0.0000781  -0.1365934  -0.4848620   0.9023040  -0.4372037
  -0.6628446   0.3752436   0.0055265   0.0000000   0.0000000   0.0000000
  -0.4784806   0.0115101   0.3555258   0.3563429   0.2072777   0.9245335
   0.3059144   0.2055657   1.0207554   0.0000000   0.0000000   0.0000000
  -0.1846737   0.2976112   0.3205187  -0.5419027   0.4966271  -0.2558148
   0.0917406   0.1800159   0.7916583   0.0000000   0.0000000   0.0000000
  -0.1115108   0.2909306   0.3072189  -0.2822795  -0.0910930   0.2595705
   1.1981821   1.5053081  -1.3445840   0.0000000   0.0000000   0.0000000
  -0.2118339   0.4947929   0.0165898   0.5953112   1.0758956  -0.7273037
   0.2317264   0.7652621  -0.4387698   0.0000000   0.0000000   0.0000000
  -0.1932283   0.0559100   0.0347721   0.4899630  -0.4350775   0.2843152
  -0.0937638  -0.2523266  -0.0794239   0.0000000   0.0000000   0.0000000
  -0.2603520   0.0915058   0.1436529  -0.3413013  -0.1840605   0.0305877
  -0.1467605   0.3010024   0.0701005   0.0000000   0.0000000   0.0000000
  -0.0785879   0.1319514   0.1096649  -0.4126572  -0.2616918  -0.1737111
  -0.3725988  -0.1216342  -0.6690560   0.0000000   0.0000000   0.0000000
  -0.0773637   0.2811381  -0.1549760   0.3500508   0.4072946   0.0354275
   0.0006163   0.3397175   0.1202401   0.0000000   0.0000000   0.0000000
  -0.0638007   0.0793918   0.0821673   0.6018522  -0.7661593  -0.3971191
  -0.8133155  -0.4149449   0.0912103   0.0000000   0.0000000   0.0000000
  -0.1038810  -0.1784955   0.0028087   0.0938349  -0.0196786   0.2159499
  -0.7220102   0.0046138   0.9065094   0.0000000   0.0000000   0.0000000
   0.3209348   0.1670308   0.0412281   0.7838141   0.7893570   0.1551983
   0.8865585   0.2198779  -0.7059374   0.0000000   0.0000000   0.0000000
  -0.0383214  -0.0929015  -0.1007909   0.2086644   0.1588815   0.1099373
  -0.2198375   0.7593991  -0.0702328   0.0000000   0.0000000   0.0000000
   0.3043532  -0.0689250  -0.2049046   0.5932303   0.3894120  -0.6091538
  -0.2547486   0.5558446  -1.5082112   0.0000000   0.0000000   0.0000000
   0.0251838  -0.2517114  -0.1243132  -0.0588109  -0.0964312  -0.1669219
  -0.2225401   0.5964870  -0.1105089   0.0000000   0.0000000   0.0000000
   0.1216602   0.1838583  -0.0121602  -1.5075146   0.6312009  -0.9666910
   0.1601400  -0.4907559  -0.1323024   0.0000000   0.0000000   0.0000000
   0.0178803  -0.3262763   0.1071292   0.2219783   0.3270616   0.0501055
   0.3327722  -0.0923526  -1.1457171   0.0000000   0.0000000   0.0000000
   0.3771837   0.2254133   0.0566887   0.8661061  -0.2073493   1.0208873
   0.9118680  -0.1443280  -0.6991050   0.0000000   0.0000000   0.0000000
  -0.2435936  -0.2227985   0.1120203   0.3880697   0.3200598   0.4895345
   0.9795501   0.5344922   0.3846449   0.0000000   0.0000000   0.0000000
  -0.0254753   0.2066642   0.1830409   0.6285331  -0.3626262   0.0418829
   0.4508244   0.4927164  -0.2728175   0.0000000   0.0000000   0.0000000
   0.1776425  -0.0398920  -0.4127877  -0.1228531   0.0997147  -0.6067217
   0.2647190   0.1605780  -0.5764646   0.0000000   0.0000000   0.0000000
   0.1155452   0.1090978   0.0508378  -0.6990027   0.2411623  -1.2044180
  -0.4077841  -0.8897989   0.7328579   0.0000000   0.0000000   0.0000000
   0.2339517   0.2194268   0.1737794   0.1037305  -0.0811248  -0.0525921
   0.3836659  -0.3691109   0.6781956   0.0000000   0.0000000   0.0000000
  -0.0841977  -0.0267999  -0.3085559   0.3317027  -0.3781320  -0.2671504
   0.7159473  -0.6929053  -0.6729145   0.0000000   0.0000000   0.0000000
  -0.4067539  -0.2179157  -0.2328099  -0.7040127   0.5354235  -1.0160675
  -0.5651486  -0.4581948   0.3845172   0.0000000   0.0000000   0.0000000
  -0.3104243  -0.1379395   0.0855753   0.7790103  -0.6675541   0.2468516
  -0.2370377  -0.3852459  -0.9269669   0.0000000   0.0000000   0.0000000
   0.2246234  -0.0037176  -0.1749908  -0.3396369  -0.2544852  -0.4620403
   1.1366675  -0.1492451  -0.4388567   0.0000000   0.0000000   0.0000000
  -0.1059972  -0.0885092   0.0081964   0.2420579   0.1122800   0.3535508
  -0.6773803  -0.3353030  -0.4375435   0.0000000   0.0000000   0.0000000
   0.0058079  -0.0090354  -0.4782664  -1.0651863   0.6962132  -0.3704729
   0.4710396  -0.3315952  -0.4246499   0.0000000   0.0000000   0.0000000
   0.2612837   0.0095947  -0.0577116  -0.3356153  -0.2348926  -0.1723784
   0.8092805   0.1575654   0.3666266   0.0000000   0.0000000   0.0000000
   0.1367793   0.0531802   0.1864058  -1.6894273  -0.1221149  -0.5721968
  -0.0889325  -0.0314585   0.0902108   0.0000000   0.0000000   0.0000000
  -0.0234619   0.0007860  -0.1638863   1.0646279  -0.6041816  -0.7517550
   0.0510281  -0.7791591   0.2174963   0.0000000   0.0000000   0.0000000
   0.0948421   0.0269021   0.0720312   0.6223191  -0.2168558  -1.3283648
   0.1189638   0.0792810   0.1276289   0.0000000   0.0000000   0.0000000
   0.1013707   0.0659000   0.3127523  -0.1204545   0.5898143   0.3212710
  -0.0184888   0.2292859   0.2377693   0.0000000   0.0000000   0.0000000
  -0.2805308   0.3553507   0.1547251   0.4911111   0.2553571   0.2497606
  -0.3674134  -0.1244815  -0.3925993   0.0000000   0.0000000   0.0000000
   0.1701223  -0.0053176   0.0199192   1.1085507  -0.5174397  -0.5876526
  -1.3165610  -0.2360270   0.2908938   0.0000000   0.0000000   0.0000000
  -0.1673471   0.3387058   0.3636148   0.5450096   0.5401866   0.2423943
  -0.4203871  -0.2641610   0.1885038   0.0000000   0.0000000   0.0000000
  -0.1969032   0.2255324  -0.0402379  -0.9754068  -0.4353464  -1.0122845
  -0.0347914   0.6976590   0.0677869   0.0000000   0.0000000   0.0000000
   0.0705147  -0.0631103  -0.0319998   0.4014545  -0.7626913  -0.4942803
   0.4614414  -0.0659850  -0.0507050   0.0000000   0.0000000   0.0000000
   0.2003984   0.2130192  -0.4355036  -0.2811684   0.5962316  -0.6992016
   0.2145557   0.2989232   0.1123854   0.0000000   0.0000000   0.0000000
   0.0039927   0.3219967   0.4146219   0.9923702   0.0120606   0.2292059
  -0.6632525   0.6673126   0.1431410   0.0000000   0.0000000   0.0000000
  -0.3961459   0.1065255   0.0006002  -0.3930455  -0.4308381  -0.1834494
  -0.2119084   0.4398175   0.1170953   0.0000000   0.0000000   0.0000000
  -0.1798328  -0.0297924  -0.0717295   0.1432856   0.3986248   1.2710957
  -1.4797597   1.0532108  -0.0246958   0.0000000   0.0000000   0.0000000
  -0.4199120   0.5171283   0.0664410  -0.6027020   0.5609728   0.4276097
  -0.8961801   1.5202596   0.4744462   0.0000000   0.0000000   0.0000000
   0.0396821  -0.1309989  -0.0485859   0.2125335  -0.4903677   0.0583730
   0.1342735  -0.2631258  -0.3501207   0.0000000   0.0000000   0.0000000
  -0.0119117  -0.1507870  -0.0477753  -0.1870419   0.1102815  -0.3766957
   0.1394170  -0.6366770   0.5420918   0.0000000   0.0000000   0.0000000
   0.0442306   0.1736321   0.0846344  -0.1050447   0.2430773  -0.5712392
   0.3868380   0.4433182   0.5637556   0.0000000   0.0000000   0.0000000
   0.0203014  -0.1005293   0.0778805  -0.2312537   1.6136569  -0.0591162
  -0.0835844   0.3916043   0.0125988   0.0000000   0.0000000   0.0000000
  -0.0802812  -0.2174781   0.0814175   0.2207407  -1.1516071   0.3335054
   0.2550162  -0.2879553   0.5869108   0.0000000   0.0000000   0.0000000
   0.1337952   0.0458912  -0.1088382   0.0861413   0.2265308  -0.0233419
   0.1512107   0.2119153   0.0187022   0.0000000   0.0000000   0.0000000
   0.0312207  -0.0545919  -0.1123398  -0.2280455   0.3057864  -0.3865926
  -0.0523296   0.0217541  -0.4306360   0.0000000   0.0000000   0.0000000
   0.1760187   0.1619927  -0.1987366   0.2036073  -1.5860704   0.6259117
  -0.7969101  -0.7946255   0.8015209   0.0000000   0.0000000   0.0000000
   0.1772323  -0.0818363  -0.1958341   0.1897683  -0.4487612   0.8089405
   0.0288072   0.0481595  -0.7014095   0.0000000   0.0000000   0.0000000
  -0.0644966  -0.0013978   0.0069283   0.1081386   0.8622845  -0.1355843
  -0.5170188   0.3767153  -0.3418912   0.0000000   0.0000000   0.0000000
   0.3813529   0.0123250   0.0082474   0.0049907  -1.3704756  -0.3141714
   0.4639165  -0.1502143  -0.1969399   0.0000000   0.0000000   0.0000000
   0.0031457   0.3238367   0.2347663  -0.1214075   0.3248502  -0.1262621
   0.0567799   0.3490291   0.5308260   0.0000000   0.0000000   0.0000000
  -0.4036628  -0.1469049   0.1226375  -1.2425842   0.7809148   0.8764980
   1.1049447  -0.4647257   0.6343398   0.0000000   0.0000000   0.0000000
   0.0539150   0.0430309   0.1348371   0.1888409   1.2941195   0.8401707
  -0.1146781   0.3256049   0.6437676   0.0000000   0.0000000   0.0000000
  -0.6417120  -0.0952724  -0.3592325   0.0236261  -0.6991370  -0.1444188
   0.4728503  -1.1394185   0.0305019   0.0000000   0.0000000   0.0000000
   0.1042009   0.4487814  -0.0788164  -0.1915781   0.1893896   0.0379141
   0.4757375   0.1694007  -0.2514510   0.0000000   0.0000000   0.0000000
   0.1687344   0.1396131   0.1229855   0.0404618   0.1911686   0.3748492
  -0.3633526   0.1673555   1.2554794   0.0000000   0.0000000   0.0000000
  -0.0860154  -0.2336720  -0.1627660   0.7814740  -0.5451176  -0.0918973
  -0.2770634   0.4098712  -0.5892491   0.0000000   0.0000000   0.0000000
  -0.0997126  -0.4935800   0.2261203  -1.0522092   0.2922785   0.5681699
   0.4933026   0.2129537  -0.3175623   0.0000000   0.0000000   0.0000000
   0.1933746  -0.0440346   0.2133572   0.2316394   0.0167175  -0.6162041
   0.0136573   0.2505177   0.6613406   0.0000000   0.0000000   0.0000000
   0.0119416  -0.1375719   0.3020016   0.7248954   0.9032651   0.2747508
  -1.2552394  -0.7503293   0.0626046   0.0000000   0.0000000   0.0000000
  -0.1859775  -0.1697080   0.0514555  -0.1407743  -0.1097301   0.0947353
  -0.3021313  -0.3149174   0.0441523   0.0000000   0.0000000   0.0000000
   0.2484606  -0.2363496   0.0098185   0.8713487  -0.3634706  -0.5337234
  -0.2240121   0.4309689   0.4443804   0.0000000   0.0000000   0.0000000
   0.0133716   0.1415686  -0.1936646  -0.6021938  -0.2829261   0.1412675
  -0.2269531   0.8807539  -0.3577532   0.0000000   0.0000000   0.0000000
  -0.0443984  -0.0849944  -0.2372902   0.3274213  -0.2517296  -0.3411665
   0.3871271  -0.4402567  -0.3057524   0.0000000   0.0000000   0.0000000
  -0.3033119   0.1121505   0.0757630   0.3611059   0.1270750   0.0038277
   0.3958059  -1.1924253   0.6719371   0.0000000   0.0000000   0.0000000
  -0.1346592   0.4272549   0.0703806   0.2851611   0.3535832   0.4502883
  -0.0675441   0.4637797  -0.6308856   0.0000000   0.0000000   0.0000000
   0.1064080   0.2194593  -0.2635345  -0.3932378  -0.4879238  -0.4479139
  -0.3240189  -0.4431595   0.5466186   0.0000000   0.0000000   0.0000000
   0.4849340  -0.1245448  -0.2103026   0.4203356  -0.2712107  -0.2056602
  -0.1815324   0.3414568   0.0451059   0.0000000   0.0000000   0.0000000
   0.1167445   0.2542755   0.1748323  -0.0099676   0.8997330   0.6913066
  -0.5469816   0.1255687   0.7096897   0.0000000   0.0000000   0.0000000
  -0.0973584  -0.1860161  -0.1300549  -0.1696119  -1.3337431  -0.3917909
  -0.4890683  -0.5418854   0.0332241   0.0000000   0.0000000   0.0000000
   0.2648041  -0.1033105  -0.0989408  -0.4094951  -0.0579623  -0.5748741
   1.0103668   0.4714419  -1.4539340   0.0000000   0.0000000   0.0000000
   0.0360898   0.2481914  -0.2623768  -0.0043387  -0.3435404  -0.4476839
   0.0060221   0.8837563  -0.0418695   0.0000000   0.0000000   0.0000000
   0.2151333  -0.2191124  -0.1597648  -0.4400774  -0.6546262  -0.8001338
   0.6331491   0.7423635   0.6976212   0.0000000   0.0000000   0.0000000
  -0.0189794   0.0292906   0.2651955   0.3417226   0.2625017   0.4661029
  -0.6683838  -0.6689489  -0.3734818   0.0000000   0.0000000   0.0000000
   0.0931641  -0.1631842   0.2500528   0.0850803  -0.2858320   0.4089504
   0.2292809   0.0217708   0.3649414   0.0000000   0.0000000   0.0000000
   0.0234575   0.0257277  -0.1347000  -0.4066222  -0.8015020  -0.1235010
   0.3976206   0.8454764  -0.1456416   0.0000000   0.0000000   0.0000000
  -0.0337922  -0.1568771  -0.0261442   0.0332094  -0.0960214   0.0910653
  -0.1215831  -0.5876473  -1.1786710   0.0000000   0.0000000   0.0000000
  -0.2919944   0.4966190  -0.0386857   1.1201512  -0.4913162  -1.6682153
  -0.8353012  -0.9053118   0.9525269   0.0000000   0.0000000   0.0000000
  -0.0449839   0.1650208  -0.0262468  -0.7013561  -0.1144319   0.7683807
  -0.1091698  -0.7081138  -0.6245815   0.0000000   0.0000000   0.0000000
  -0.0578717  -0.0040817  -0.0005282   1.2196137  -0.1214466  -1.1451614
   0.5893778   0.0580637  -1.4082232   0.0000000   0.0000000   0.0000000
   0.0077405  -0.3075683  -0.3365671   0.2611896   0.3798882   0.3432717
  -0.2953873  -0.3926678  -0.3609722   0.0000000   0.0000000   0.0000000
   0.0200257  -0.0295054  -0.2355625   0.7708382  -0.0898591  -0.0921118
  -0.2742077   0.0671152  -0.3450104   0.0000000   0.0000000   0.0000000
   0.0184254   0.1315962  -0.0918867   0.0957694  -0.9668184  -0.2441216
  -0.0900629   1.0110129   0.0363559   0.0000000   0.0000000   0.0000000
  -0.1568482  -0.0482600  -0.2097849   0.0921194  -1.0924818  -1.0149902
  -0.0263407   0.0317666   0.5703245   0.0000000   0.0000000   0.0000000
   0.0798244  -0.1067248   0.0689769  -1.2342669  -0.2145617  -0.7510868
   0.6494821   0.0538847   0.5488465   0.0000000   0.0000000   0.0000000
   0.4772029   0.3747860  -0.1132086   0.7822572  -0.7851615  -0.5236847
  -0.4508418   0.5432029   0.6713494   0.0000000   0.0000000   0.0000000
   0.0620238   0.1018362  -0.1381999   0.1055976   0.1758709  -0.1665345
   0.1534658  -0.7244456  -0.3320503   0.0000000   0.0000000   0.0000000
  -0.0029033  -0.0592351   0.0696088   1.1094155   0.0767806  -1.0234381
  -0.9331456  -0.2493738  -0.7386143   0.0000000   0.0000000   0.0000000
  -0.1092751  -0.0124420   0.2545435  -0.0561475  -0.3098830   0.1262839
  -0.2321686   0.4294177   0.5112544   0.0000000   0.0000000   0.0000000
  -0.1044087  -0.0199109  -0.1153350   0.1865359   0.4395122   0.1510371
  -0.3475984   0.2155271  -0.6831763   0.0000000   0.0000000   0.0000000
  -0.0773919  -0.0766147  -0.0308517  -0.4121129   0.2538099  -0.5808350
  -0.6476023  -0.2808979   0.4153147   0.0000000   0.0000000   0.0000000
  -0.1832656  -0.1695585  -0.0112205  -0.2326525  -0.2320314   0.0205535
  -0.1480582  -0.1149188  -0.4445188   0.0000000   0.0000000   0.0000000
   0.3632541  -0.1543473  -0.0675671   0.6008526  -0.2293095   0.1112112
  -0.5375606  -0.0350529   0.0818353   0.0000000   0.0000000   0.0000000
  -0.1936753   0.2999773   0.3720192  -1.3947991  -0.7837164  -0.2059804
  -0.5895646   0.0891571   0.6776965   0.0000000   0.0000000   0.0000000
  -0.4263862  -0.2442741   0.0435907  -0.8134770  -0.4039084  -0.3295950
  -0.1581027   0.0165490  -0.5234050   0.0000000   0.0000000   0.0000000
   0.1502820   0.2456008  -0.2049124   0.0923823  -0.2520947  -0.9861113
   0.0342054   0.1856587  -0.3170806   0.0000000   0.0000000   0.0000000
   0.0453744  -0.1643073  -0.1942163  -0.3188779   1.1232550  -1.0975397
   0.0076038   0.1014373  -0.5848092   0.0000000   0.0000000   0.0000000
   0.1342824  -0.0284891  -0.1817747   0.7302201   0.0271832   0.3299646
  -0.4276434  -0.4519869  -0.0076823   0.0000000   0.0000000   0.0000000
  -0.2649420  -0.0109031  -0.1955347  -0.1467625   0.6372082  -0.2375840
  -0.2292875  -0.1133123  -0.3564476   0.0000000   0.0000000   0.0000000
   0.2522954  -0.0924261  -0.0603941   0.0173382   0.8042087  -0.8246597
  -0.7951189   1.1727327  -0.3938859   0.0000000   0.0000000   0.0000000
   0.2070906   0.0764875   0.1091681   0.3387504   0.6502200   1.9162209
   0.6790760  -0.9127778  -0.0270538   0.0000000   0.0000000   0.0000000
   0.1755412  -0.1972446   0.3007337  -0.1775211  -0.0549338   0.6290550
   0.2506523  -0.1432871   0.2253294   0.0000000   0.0000000   0.0000000
   0.2841395  -0.3599717  -0.3603033   1.1098677  -0.5386535   0.1691090
   0.7588804   0.6633712  -0.1062531   0.0000000   0.0000000   0.0000000
  -0.0885330   0.1668297   0.2728590  -1.0418856  -0.2899663   0.0761785
   0.0477273  -0.0226360   0.2623871   0.0000000   0.0000000   0.0000000
   0.3028623  -0.4902030   0.0448883   0.1965322  -1.0744117   0.2079712
   0.2127371  -0.4053077   0.0097793   0.0000000   0.0000000   0.0000000
  -0.2629957  -0.1515772   0.0185745  -0.3602778   0.2340595   0.3484940
  -0.2125994  -0.4117708  -0.0970264   0.0000000   0.0000000   0.0000000
  -0.2692812  -0.0563254  -0.0034045  -0.3840005  -0.4100484  -0.0631212
   0.0100290  -0.4864900   0.6554569   0.0000000   0.0000000   0.0000000
  -0.2022936   0.0747149   0.4235682  -0.5525788   0.2282565   0.3385036
   0.4996320  -0.6032706  -0.5617008   0.0000000   0.0000000   0.0000000
   0.1127502   0.2433211   0.0214989  -0.4992126  -0.6261020  -0.0142468
   0.0723105   0.2956199  -0.3000459   0.0000000   0.0000000   0.0000000
  -0.0684556   0.1156241  -0.0505563   0.7366662  -0.4932976  -0.2464223
  -0.7023936   0.2220357   0.8516026   0.0000000   0.0000000   0.0000000
  -0.2289705  -0.0618316  -0.0069825  -0.0198268  -0.3356307  -1.0068483
  -0.1277205  -0.3351729  -0.3064440   0.0000000   0.0000000   0.0000000
   0.2474911   0.0435111   0.0025806   0.1652417  -0.6182839  -0.9757550
   0.1812199  -0.0662080  -0.1071648   0.0000000   0.0000000   0.0000000
  -0.0727425  -0.1680686   0.2032509  -0.7700401  -0.6074566  -0.4951940
  -0.1326321   0.0001916  -0.6986637   0.0000000   0.0000000   0.0000000
   0.1560602   0.3037648  -0.4141712   0.5126733  -0.1686765  -1.0189275
   0.3114458   0.7818807   0.1963335   0.0000000   0.0000000   0.0000000
   0.1406501  -0.0902393   0.2666080   0.1598149  -0.1187067  -0.3940323
  -0.1116845  -0.1631288   0.2900007   0.0000000   0.0000000   0.0000000
   0.0192695  -0.0182202   0.3617878   0.4877260   0.2719650   0.4817802
  -0.6108682  -0.0138697   0.0994522   0.0000000   0.0000000   0.0000000
   0.0227166  -0.0320199   0.0044417   0.2519798   0.1998632   0.1684955
   0.1150462  -0.2280508  -0.1787771   0.0000000   0.0000000   0.0000000
   0.1305279   0.0519119  -0.0780850   0.5468555  -0.9586582  -0.7803242
  -0.2906175  -0.0706967  -0.3791929   0.0000000   0.0000000   0.0000000
   0.0501580   0.2372606   0.2939313   0.2762687   0.5216849  -0.0774700
   0.2317036   0.4163057   0.5530835   0.0000000   0.0000000   0.0000000
  -0.1198133  -0.1678249   0.1201719   0.4293939   0.4028375  -0.4679031
  -0.5373092  -1.3256391   0.2960143   0.0000000   0.0000000   0.0000000
   0.0148320   0.0791909  -0.0057538  -0.0496420   0.3348095   0.4814692
  -0.5325704  -0.1946859  -0.1015316   0.0000000   0.0000000   0.0000000
  -0.1063252  -0.1769020  -0.2636998  -0.1442267   0.5372731  -0.9263439
   0.2365556   0.4246857  -1.0895285   0.0000000   0.0000000   0.0000000
   0.1852306  -0.0353359   0.1053949   0.1531195  -0.2486744   0.6794465
   0.2991270   0.7138429  -1.4079019   0.0000000   0.0000000   0.0000000
  -0.0514509   0.1184514  -0.2539041  -0.2520525  -0.2265373   0.0692313
  -0.5820330   0.4509246  -0.3358606   0.0000000   0.0000000   0.0000000
   0.1498634  -0.1005833  -0.2358932   0.1576291   0.4070347   0.2241053
  -0.3629990  -0.4067237  -0.6037009   0.0000000   0.0000000   0.0000000
   0.1811483  -0.3678997  -0.2355543  -0.8584107  -0.4307543  -0.5452869
   0.2753873  -0.1435670  -0.4604112   0.0000000   0.0000000   0.0000000
  -0.1960904   0.4000767  -0.1030909   0.0275878  -0.2340897   0.5085446
  -1.0434739   0.2539549   0.2041911   0.0000000   0.0000000   0.0000000
  -0.0130104   0.0269675  -0.0786483   0.0479109   0.4567224   0.6139229
  -0.3397779  -0.2200889  -0.5781816   0.0000000   0.0000000   0.0000000
   0.0756655   0.1658443   0.4886146   0.1507769  -0.6190698   0.9309220
  -0.0041648   1.6785165   0.3783649   0.0000000   0.0000000   0.0000000
  -0.0195776  -0.2638517   0.1686423  -0.2560104  -0.8318804   0.5986546
  -0.1948313   0.0197054  -0.6444440   0.0000000   0.0000000   0.0000000
   0.1596965   0.1311946   0.1955061   0.8459389   0.3830360  -0.7068153
   0.5444986   0.0070308  -0.0071787   0.0000000   0.0000000   0.0000000
  -0.0430726   0.0451051   0.1176805  -0.8078353   0.2584926   1.0230687
   1.0466829  -0.0982661   0.7491711   0.0000000   0.0000000   0.0000000
   0.1651214   0.0774544  -0.0334557  -0.2974663  -0.1549752  -0.5824737
   0.2516832  -0.6093822   0.5039997   0.0000000   0.0000000   0.0000000
   0.1680730   0.1158688  -0.0773918  -0.1148848   0.4555145  -0.8259496
  -1.1202175   0.0209277   0.1229381   0.0000000   0.0000000   0.0000000
  -0.2080565   0.1468488  -0.0829316  -0.7066837   0.0858902  -0.1069677
  -1.2352500  -0.1528521   0.2655154   0.0000000   0.0000000   0.0000000
   0.0613163   0.1978809   0.0968577  -0.1674110   0.1741123   0.0339127
   0.4472479   0.1883878   0.0984015   0.0000000   0.0000000   0.0000000
  -0.1329400  -0.5240559   0.0889792  -0.0031871  -0.5232988  -0.3224327
  -0.6542409  -0.4703522   0.0470233   0.0000000   0.0000000   0.0000000
   0.2911410   0.2288777   0.4146265  -0.3846285  -0.9169631   0.2481318
   0.5936403   0.3347001   1.8354414   0.0000000   0.0000000   0.0000000
   0.2483182   0.1765552  -0.3513283   0.5925295   0.4225104   0.3293667
   0.5610848  -0.5427755  -0.3721165   0.0000000   0.0000000   0.0000000
  -0.0986869  -0.0050458  -0.2194602  -0.6695666  -0.2438717  -0.3694410
  -0.9377877  -0.4156296  -0.1292791   0.0000000   0.0000000   0.0000000
   0.0839326  -0.1512270  -0.3479046   0.0417504   0.6124649   0.0530405
  -0.8995038  -0.8112630  -0.2187944   0.0000000   0.0000000   0.0000000
  -0.2271879   0.1244051   0.2168756   0.7818639   1.2757087  -0.0198793
   0.8593139   1.1933966  -0.0437796   0.0000000   0.0000000   0.0000000
   0.2099239   0.0081046   0.0096850   0.3369261   0.0957074   0.2914980
   0.1078988  -0.1456925  -0.2819950   0.0000000   0.0000000   0.0000000
   0.2012663  -0.1262148   0.1753547  -0.0045427  -0.5814919   0.0769888
   0.0042045  -0.3486356   0.2144404   0.0000000   0.0000000   0.0000000
  -0.0083057  -0.1190275  -0.2154303   0.1877459  -0.6920625  -0.2608409
  -0.0064139  -0.6571841  -0.0860527   0.0000000   0.0000000   0.0000000
  -0.1204842   0.0444160  -0.0120806  -0.7603869   0.2506178  -0.0688777
  -0.2707674   0.4781011   0.3970633   0.0000000   0.0000000   0.0000000
  -0.0642658  -0.0209095   0.2239837  -0.7141147   0.6595171   0.8236003
  -0.2065671  -0.6991074  -0.3090915   0.0000000   0.0000000   0.0000000
  -0.0797394   0.0360948  -0.1745660   0.5299858  -0.1871056   0.3243969
  -0.0327342  -0.4344617   0.0764377   0.0000000   0.0000000   0.0000000
   0.0709540   0.1251438   0.3798317  -0.4560092  -1.4378223   0.5719222
  -0.2648143   0.2127299   0.1411932   0.0000000   0.0000000   0.0000000
  -0.0625004   0.0567485   0.0618805   0.5348984   0.0931980   0.1053963
   0.2439437  -0.2708886  -0.0441812   0.0000000   0.0000000   0.0000000
   0.2813615   0.0960596   0.0600855   0.0088764  -0.4078271   0.2847073
  -0.3632726  -0.2773816   0.4941489   0.0000000   0.0000000   0.0000000
  -0.0763493  -0.2913322  -0.1756465  -0.5153940   0.0802698   0.5390086
   0.3656164  -0.2774423  -0.8024354   0.0000000   0.0000000   0.0000000
  -0.0189057  -0.0028933   0.1130771   0.3392728   0.7333359   0.8460429
  -0.4232352   0.1077031  -0.1482056   0.0000000   0.0000000   0.0000000
  -0.0616092   0.0885544  -0.1206061   0.1119766  -1.1441703  -0.3729276
  -1.0384275  -0.0989274   0.3225359   0.0000000   0.0000000   0.0000000
   0.0195938   0.2636292  -0.0743378  -0.3277393   0.1031763  -0.2636276
   0.1895206  -0.1110957   0.2136807   0.0000000   0.0000000   0.0000000
  -0.1270821   0.0909722  -0.1446508  -0.1034200   0.3912996   0.3068652
  -0.3890728   0.9234994   0.3772632   0.0000000   0.0000000   0.0000000
   0.0583089   0.1745097   0.0827346   0.0802273   0.5530291  -0.1354505
   0.0905326   0.8611082   0.7305165   0.0000000   0.0000000   0.0000000
   0.1777283  -0.1620696   0.0372615  -1.1423218   0.3763021   0.1295547
   0.7216329   0.6020292  -1.1054849   0.0000000   0.0000000   0.0000000
  -0.2226362   0.1693336   0.2040922  -2.1002514  -1.0481492  -1.3973260
   0.8042173   1.1274657   1.0706481   0.0000000   0.0000000   0.0000000
  -0.1517097  -0.1214664   0.0345028  -1.0125906  -0.7689374  -0.4300619
  -0.4825503   0.2987523   0.7534112   0.0000000   0.0000000   0.0000000
  -0.1914251  -0.0384579  -0.0589241  -0.7879395   0.2262065   0.1107450
   1.0329385  -0.3945454  -0.4907580   0.0000000   0.0000000   0.0000000
  -0.2924100   0.1487229   0.0863350  -0.9879799  -1.1632965   0.7117839
   0.4659198   1.3772608  -0.5195435   0.0000000   0.0000000   0.0000000
  -0.3899121   0.1137370   0.3896884  -0.9023845  -0.1907681   0.1212037
   0.1621681   0.5335111   0.9786941   0.0000000   0.0000000   0.0000000
   0.0201515   0.3556969  -0.0978813   1.9203854   0.9706385   0.1033229
   0.8146649  -0.3539368  -0.0229611   0.0000000   0.0000000   0.0000000
  -0.0263366  -0.1396726   0.0023053   0.2622347  -1.4341116   0.2674386
   0.0873701   0.6038802  -0.2289741   0.0000000   0.0000000   0.0000000
  -0.5233529   0.0728471  -0.0088745  -1.5781602   0.6061495  -0.3132124
   0.2601273  -0.1467463  -0.1151763   0.0000000   0.0000000   0.0000000
  -0.0831134  -0.2005721   0.0271157  -0.8269339  -0.8500428  -0.4243974
  -0.3438761   0.2998161   0.6374717   0.0000000   0.0000000   0.0000000
  -0.1091770   0.1719613   0.0722175   0.5941528   0.5022643  -0.5987673
   0.2566786   0.2016310   0.8043917   0.0000000   0.0000000   0.0000000
   0.0841309   0.1796327   0.0294666  -0.1791693  -0.0883013   0.3400303
   0.2290712  -0.5355637   0.4550321   0.0000000   0.0000000   0.0000000
  -0.0396026   0.1631296   0.0812236   1.5072150   0.3677505   0.9097204
   0.2140712  -0.9034173   1.0511152   0.0000000   0.0000000   0.0000000
  -0.2467396   0.0667567   0.0825213  -0.3649376   0.3586376   0.1862540
  -0.3984191  -0.2819868  -0.2576904   0.0000000   0.0000000   0.0000000
  -0.0302963  -0.2874308   0.0737595   0.6383996  -0.3544603  -0.6798768
   0.3582276   0.5872770   0.8291840   0.0000000   0.0000000   0.0000000
  -0.0590329   0.1788380   0.3060359   0.6992649   0.9123173   0.3113354
   0.0962858   0.2139229  -0.5055894   0.0000000   0.0000000   0.0000000
   0.0407546   0.2189864  -0.2879562   0.2297042   0.4072839   0.4414795
  -0.2817608  -0.6071639  -0.5441592   0.0000000   0.0000000   0.0000000
  -0.0602025  -0.3144260  -0.1605911   1.1275746  -0.1534073  -0.0222663
   0.0379591  -0.7223622  -0.5156272   0.0000000   0.0000000   0.0000000
  -0.2453017   0.0758630   0.0723963  -0.2025554   0.1525893   0.0179317
   0.0315436   1.0461985  -0.5219927   0.0000000   0.0000000   0.0000000
  -0.0420297  -0.1316262   0.0107562   0.1451667   0.9543796  -0.2061259
   0.8088430  -0.5596321  -0.4867691   0.0000000   0.0000000   0.0000000
  -0.0342809   0.4144558  -0.1928085  -0.0446312   0.1171399  -0.1297568
  -0.5853250  -0.2460013   0.2351871   0.0000000   0.0000000   0.0000000
  -0.0085127   0.0238483  -0.5422653   0.9580991  -0.0616786  -0.5972205
   0.1018411   0.5701262   0.5710305   0.0000000   0.0000000   0.0000000
  -0.0083091   0.1314796   0.0399235  -1.0615023  -0.1350094   0.3005972
   0.7131896   0.2210717   0.0900954   0.0000000   0.0000000   0.0000000
   0.3658702   0.0175128  -0.0065002   0.1196907  -0.4690403  -0.1574683
   0.0776398   0.2689532  -0.3495730   0.0000000   0.0000000   0.0000000
  -0.2005937  -0.0090238  -0.0060961  -1.2891736  -0.7954371  -0.2453132
  -0.8663224  -0.5486805   0.8884017   0.0000000   0.0000000   0.0000000
   0.1755783  -0.1689868   0.1204327   0.7325795   0.2637486  -0.0716537
   0.1818907   1.0782280  -0.7298675   0.0000000   0.0000000   0.0000000
  -0.1700728  -0.0149132   0.0081804  -1.1265304  -0.5872815   0.6073143
  -0.4534649  -0.0460341  -0.8525405   0.0000000   0.0000000   0.0000000
  -0.0605631  -0.1548337  -0.0953752  -0.2932921   1.1758956  -0.9364789
  -0.5345671   0.7517780   0.0343544   0.0000000   0.0000000   0.0000000
  -0.0311114  -0.2141547  -0.0113236  -0.1031952  -0.5420055   0.7738013
  -0.2314399   0.5786994   0.5916062   0.0000000   0.0000000   0.0000000
  -0.0996618  -0.1673850   0.0196248  -0.5541999  -0.0833823  -0.6399775
   1.0530348   1.0529541  -0.3927428   0.0000000   0.0000000   0.0000000
  -0.0055574  -0.0893799  -0.3062988  -0.0588142   0.0920751  -0.3712451
   0.6433062  -0.5404118  -1.0605295   0.0000000   0.0000000   0.0000000
   0.0530391   0.1844059  -0.1294042   0.0043260  -1.2593192  -1.0372473
   1.3944071   0.9781400  -0.7188610   0.0000000   0.0000000   0.0000000
   0.0260017   0.1469267   0.0448483   0.1902892   0.3302689   0.3059876
  -1.0831422  -0.3274503   0.3338121   0.0000000   0.0000000   0.0000000
  -0.1976259  -0.0440115   0.2745559  -0.2955652  -0.4683819   0.3941216
  -0.2458918   0.1738102  -0.2802041   0.0000000   0.0000000   0.0000000
   0.2204619   0.0741995   0.0916460   0.2229751   0.1449078   0.1063063
  -0.0758356  -0.5094172  -0.2195988   0.0000000   0.0000000   0.0000000
  -0.0673726  -0.0888425  -0.1312505   0.0186777   0.5647616   0.8745561
  -0.0178066   0.1627973   0.1821283   0.0000000   0.0000000   0.0000000
   0.2884095   0.1169361   0.1920133   0.1675059  -0.2696487   0.4291538
   0.0166750   0.4797477   0.3654254   0.0000000   0.0000000   0.0000000
   0.1013906   0.0302081  -0.3003988   0.0775243  -0.1903793  -0.4985211
   0.2662755   0.0899361  -0.1231827   0.0000000   0.0000000   0.0000000
  -0.2059878   0.3482567   0.6189669  -0.3104989  -1.6086678   1.2718348
  -0.3702496  -0.1495503   0.2690393   0.0000000   0.0000000   0.0000000
  -0.0946276   0.1057987  -0.0602354   0.7376536   0.5683456   0.1568711
   0.1220590  -0.8657848  -0.4492785   0.0000000   0.0000000   0.0000000
   0.1316689  -0.1143320   0.3568923   0.1279582   0.4424953   0.3455731
  -0.5847998   0.2943982  -0.2856782   0.0000000   0.0000000   0.0000000
   0.2140316   0.1070325   0.3001505   0.3591108  -0.2151725   0.0212659
  -0.7418987   0.0204774  -0.6606271   0.0000000   0.0000000   0.0000000
  -0.1677689  -0.1968593  -0.0772826  -0.1118336   0.1687363  -0.5394910
  -0.3118415  -0.7113528  -0.3839446   0.0000000   0.0000000   0.0000000
  -0.1906753   0.0462346  -0.2010227  -0.6257447   0.1589892  -0.1850598
  -0.0145419   0.3539745   0.0840807   0.0000000   0.0000000   0.0000000
   0.0189183   0.0163330   0.0621494  -0.0735100  -0.9496145   0.7451504
  -0.1646627   0.9573996   0.7335942   0.0000000   0.0000000   0.0000000
  -0.2339192   0.0136453  -0.1719211  -0.0753814   0.4860372   0.3976169
   0.5778490  -0.5226309   1.5091186   0.0000000   0.0000000   0.0000000
   0.0946951  -0.0520384   0.2260604   0.6132257   0.1917461   0.4011361
  -0.2062695  -0.2984325  -0.1611337   0.0000000   0.0000000   0.0000000
  -0.1724262   0.0100937  -0.0320846  -0.9455178  -0.2990278  -0.2296565
   0.2240115   0.5689384   0.0887716   0.0000000   0.0000000   0.0000000
  -0.0284867   0.0222865   0.0454697   0.0548021  -0.5795325   0.4827838
   0.0602893  -1.0686788   0.6059906   0.0000000   0.0000000   0.0000000
  -0.0625877   0.0228247   0.0322559  -0.1689196  -0.0433017  -0.7467674
   0.5902152   0.0387832  -0.5275283   0.0000000   0.0000000   0.0000000
   0.0864194   0.1156697   0.0008003  -0.8329530   0.3968258   1.3131876
   0.0015126   0.2741958   0.2128827   0.0000000   0.0000000   0.0000000
  -0.6276518  -0.0627249   0.1772959  -0.5779109  -0.9081395  -0.9044078
  -0.7407982  -0.1157384  -0.0148996   0.0000000   0.0000000   0.0000000
   0.3353705  -0.0845178  -0.2712219   0.4089556   0.2990288   0.0579648
   0.3693912  -0.3699541  -0.0918919   0.0000000   0.0000000   0.0000000
   0.0750187  -0.0957916   0.1272705   0.0793751   0.1619112   0.2220890
  -0.0380151  -0.2706454  -0.2097290   0.0000000   0.0000000   0.0000000
  -0.1047376   0.2761366  -0.2772038  -1.0432901   0.9349005   0.6329040
   0.7306099   0.1257399  -0.8930957   0.0000000   0.0000000   0.0000000
  -0.1471748  -0.1700501  -0.2475852  -0.2500846  -0.4840052  -0.5839371
   0.0173327  -0.4517151  -0.2082533   0.0000000   0.0000000   0.0000000
  -0.1603204  -0.0066619  -0.0329996  -1.2965459  -0.6470649   0.2930883
   0.7682179  -0.9045867   0.6025817   0.0000000   0.0000000   0.0000000
  -0.1577082   0.0702029  -0.2729006  -0.8169990   0.9555964  -0.7031142
   0.0991123   0.5767150   0.6912163   0.0000000   0.0000000   0.0000000
   0.4013532   0.4153851  -0.0225311   0.1829459   0.3637645  -0.4303692
  -0.9782074  -0.4548539  -0.5262271   0.0000000   0.0000000   0.0000000
  -0.0095578   0.0012909  -0.0647144  -0.2314572  -0.1534522   0.3602156
  -0.1060400   0.0342687  -0.2894222   0.0000000   0.0000000   0.0000000
   0.1653158  -0.1425630   0.1164066  -0.3935504  -0.1405781   0.2103859
   0.6961617   0.3404267  -0.3960489   0.0000000   0.0000000   0.0000000
  -0.3328157  -0.2296236   0.0678684  -0.3989705  -0.4016550   0.4795709
  -0.3056088   0.0919997   0.2839040   0.0000000   0.0000000   0.0000000
   0.0378639  -0.1928637   0.5496029   0.6897731   0.2712190   0.8604996
  -0.2251470  -0.1378021   0.5352777   0.0000000   0.0000000   0.0000000
  -0.1510520  -0.0029851  -0.0162289   0.4519967   0.6368455   0.5411725
  -0.6068662   0.6020489  -0.5889234   0.0000000   0.0000000   0.0000000
   0.1377915  -0.0562755  -0.1420629   0.5426675  -0.0808277   0.2952148
  -0.0439165  -0.1085412  -0.3084483   0.0000000   0.0000000   0.0000000
  -0.1595927  -0.2607803   0.0508521   0.1864302   0.4289064   1.1942693
   0.4641129  -0.8154728  -0.5682695   0.0000000   0.0000000   0.0000000
  -0.0405580   0.0166924   0.0426290   0.1572893  -0.1291924   0.5006652
  -0.7187940   0.2832510  -0.3301921   0.0000000   0.0000000   0.0000000
  -0.3396111   0.0052831  -0.3070011  -1.0504276   0.1995064   0.5888047
  -0.2289196  -0.2568034  -0.5135820   0.0000000   0.0000000   0.0000000
  -0.0972580   0.1743994   0.1763084  -0.7100167  -0.4222477  -0.7315317
   0.5817765  -0.6467639   0.2367321   0.0000000   0.0000000   0.0000000
   0.0531920   0.2247377  -0.2839671   0.4997751   0.9662073   0.6357327
  -0.5649462  -1.0085448  -0.3184837   0.0000000   0.0000000   0.0000000
  -0.0562837   0.0305022  -0.0507423  -0.3564281   0.1953730   0.3128388
   0.4131480  -0.2740149   0.7677662   0.0000000   0.0000000   0.0000000
  -0.0792227   0.1601559   0.0404040  -0.4626340   0.1493194  -0.3165723
  -0.2983110   0.1040703  -0.2218448   0.0000000   0.0000000   0.0000000
  -0.5374417   0.1779517   0.0651392   0.5185296   0.2651681  -0.7761945
  -1.0880014   0.5391809  -0.1292171   0.0000000   0.0000000   0.0000000
   0.0036063  -0.1537061  -0.0217750   0.3745426  -0.6311991   0.7612740
  -0.1552736   0.0517346  -0.4350874   0.0000000   0.0000000   0.0000000
   0.0894939   0.0296162  -0.0020087  -0.0836521   0.0044219   0.1419758
  -0.1655308  -0.0081535   0.2930610   0.0000000   0.0000000   0.0000000
   0.1824106   0.1149364  -0.1472528  -0.9020589  -0.9184283   0.0701253
  -0.1467872  -0.7760374  -0.7350308   0.0000000   0.0000000   0.0000000
   0.3956146  -0.1547247  -0.0022586   0.8165142  -0.4397284  -0.4756728
  -0.3234719   0.1993218   0.0645307   0.0000000   0.0000000   0.0000000
   0.2038439  -0.0946590  -0.1604428  -0.2935505  -1.5733637   0.8618097
  -0.6621451  -0.5447741   0.5381938   0.0000000   0.0000000   0.0000000
  -0.0844859   0.0004401  -0.0227523   0.2213908   0.1609851  -0.4961692
   0.2012371   0.0713896  -0.4020628   0.0000000   0.0000000   0.0000000
  -0.2612823  -0.0844884   0.0211797   0.9513936  -0.4566533  -0.2866840
   0.1907035   0.9876364   0.3842130   0.0000000   0.0000000   0.0000000
  -0.1313127  -0.1358990   0.0221001  -0.4823899   0.2349778   0.8490981
   0.5601815  -0.2726609  -0.4900622   0.0000000   0.0000000   0.0000000
   0.0739661   0.0107922  -0.1395858  -0.1133088  -0.9035542  -0.3830461
   0.3944673   0.2600600   0.5273524   0.0000000   0.0000000   0.0000000
   0.0084634  -0.2402492  -0.3142683   0.0661724  -0.0776002  -0.7987479
   0.1284472  -0.1820527  -0.2397297   0.0000000   0.0000000   0.0000000
  -0.1575539  -0.0233243   0.0502802  -0.6697305   0.3209083  -0.9447103
   0.1473290  -0.1282825   1.3279973   0.0000000   0.0000000   0.0000000
  -0.2520971  -0.1114768   0.2130182  -0.0627282  -0.4336008   0.8201343
  -0.3208791   0.2137447  -0.3377468   0.0000000   0.0000000   0.0000000
  -0.2021139  -0.0550666   0.0710766  -0.9629904   0.2194284   0.0714878
  -0.2229624  -1.0081119  -0.6076834   0.0000000   0.0000000   0.0000000
  -0.5379027  -0.0934391  -0.1763215  -0.5049110  -0.0212110  -0.0848272
  -0.5113588   0.7089450  -1.1387277   0.0000000   0.0000000   0.0000000
   0.1439209  -0.3001700   0.3622693   0.0545651  -0.3719446   0.7938527
  -0.5519480   1.0279915  -0.2504434   0.0000000   0.0000000   0.0000000
   0.0728321  -0.2051401   0.0159026   0.0916594  -0.7288658   0.6274971
  -0.1395268   0.1730735  -1.0513077   0.0000000   0.0000000   0.0000000
  -0.1811798   0.2409880  -0.1233831  -0.6357727   0.7418813  -0.1250871
  -0.8498389  -0.6912228   0.5742893   0.0000000   0.0000000   0.0000000
  -0.2869916   0.2738562   0.2599752   0.9561986  -1.0579460  -1.4726201
  -0.6678891  -0.3536341  -0.1345777   0.0000000   0.0000000   0.0000000
   0.0161720  -0.0474239  -0.3087366  -0.0079914   0.3745567   0.1956562
  -0.8932430   0.0656703  -0.3767477   0.0000000   0.0000000   0.0000000
   0.2168537  -0.0075647   0.0217797  -0.0865944  -0.7086769   0.5900528
  -0.5256586   1.4878578   0.6042095   0.0000000   0.0000000   0.0000000
  -0.0197633   0.0865053   0.1029924   0.4132033   1.1974948   0.1578397
   0.6167057   1.0762421   0.5839039   0.0000000   0.0000000   0.0000000
   0.0821265   0.0633000  -0.0001648  -0.1954271   0.1517753   0.7758400
   0.3704473   0.2024249   0.3479589   0.0000000   0.0000000   0.0000000
  -0.0197413   0.0078821  -0.2346502   0.5653859   0.2028864   0.0629151
   0.3398990  -0.0310143   0.1491783   0.0000000   0.0000000   0.0000000
  -0.0017432  -0.2998786   0.2070387   0.1403535  -0.2242697   0.3712496
  -0.1990261  -0.5318822   0.1323024   0.0000000   0.0000000   0.0000000
   0.1404812   0.2575706   0.0223732   0.7307763   0.3480322  -0.1917357
   0.6374813  -0.1490988   0.7282537   0.0000000   0.0000000   0.0000000
  -0.0147366  -0.3400581   0.1456741   0.6370112  -0.8588167  -0.3456398
  -0.0088590  -0.3207566   0.2289153   0.0000000   0.0000000   0.0000000
   0.1908923   0.0251393  -0.0322979  -0.1546726  -0.1367302  -0.4077434
   0.2323273   0.0920358   0.0257474   0.0000000   0.0000000   0.0000000
  -0.1079155  -0.1517592   0.1347079   0.1892919  -1.0081579  -0.0890801
   0.1970177  -0.0245307   0.9042488   0.0000000   0.0000000   0.0000000
  -0.2084077  -0.2513353   0.1550422  -0.2687439  -0.0367969  -0.0546645
   0.0520756   0.7719952  -0.9569732   0.0000000   0.0000000   0.0000000
   0.0609718  -0.1094606   0.1338698   0.3326340   0.4426433  -1.2460280
   0.0672411  -0.3778851   1.5538663   0.0000000   0.0000000   0.0000000
   0.1994223   0.0284791   0.2737566   0.1243752   0.1818493   0.2837042
   0.7492676   0.1842982   0.4903551   0.0000000   0.0000000   0.0000000
  -0.0843469   0.0985912  -0.0823096   0.2020605   1.5828473   0.0361697
   1.2071488  -0.1732720  -0.0500002   0.0000000   0.0000000   0.0000000
   0.1971183   0.1237698  -0.0720182  -0.0300126   0.3640880  -0.6278370
  -0.7265969   0.5341205   1.1460232   0.0000000   0.0000000   0.0000000
   0.0254629  -0.0095985   0.3155694  -0.5021671   0.8686422   1.2888092
  -0.5449116  -1.7106517   0.0048848   0.0000000   0.0000000   0.0000000
  -0.2016700  -0.0998757   0.1531748  -0.1736087  -0.1926299   0.2369767
  -0.7220206   0.2543445  -0.2128065   0.0000000   0.0000000   0.0000000
  -0.0929191   0.4718693   0.1285909   0.1530570   0.5445162   0.1770089
   0.9524434   0.8368522  -0.1266000   0.0000000   0.0000000   0.0000000
  -0.2873904   0.0958296   0.1883685  -0.1447975   0.3235738   0.1416908
   0.5839042   0.3374821   0.0808709   0.0000000   0.0000000   0.0000000
  -0.1906649   0.1694073   0.4326343   0.7919241   0.3858383  -1.0463283
  -0.2245914  -0.4822601   0.2462921   0.0000000   0.0000000   0.0000000
   0.3029774   0.1006372   0.2395986   0.4658585   0.2748525  -0.4271636
   0.0667410   0.6382965   0.7173068   0.0000000   0.0000000   0.0000000
   0.0106725  -0.0990797   0.3212113  -2.2506451   0.4264805  -1.6832954
  -0.6882854  -0.6596058   0.5217808   0.0000000   0.0000000   0.0000000
   0.1350762   0.2584940  -0.1683107   0.0976242   0.2358363  -0.2084339
  -0.1431468   0.4602106  -0.3737364   0.0000000   0.0000000   0.0000000
  -0.1874654   0.0478354   0.0870319  -0.2331760   0.0075828  -0.9452301
  -0.4456209   0.2096865   0.0044416   0.0000000   0.0000000   0.0000000
   0.3479382  -0.2180236   0.0269115   0.2306476  -0.3060130   0.3234321
   0.5205302  -1.0178356  -0.3077982   0.0000000   0.0000000   0.0000000
   0.3781359  -0.0544159   0.2765657  -0.4949370  -0.4154732   0.1708682
   0.7678546  -0.0647032   0.5931761   0.0000000   0.0000000   0.0000000
   0.5061937  -0.2348381  -0.2693567  -0.2818568  -0.2960029  -0.5851541
   0.5474030   0.0390390  -0.0040782   0.0000000   0.0000000   0.0000000
  -0.1022163  -0.0423181  -0.2266517  -0.0173593   0.9219372   0.3107033
  -0.6735272  -0.2088530  -0.0590885   0.0000000   0.0000000   0.0000000
  -0.3593074   0.1501013   0.5076635   0.8133852  -0.3718393  -0.2332967
  -1.2003466  -0.2492473  -0.4999147   0.0000000   0.0000000   0.0000000
   0.0767854   0.2293271   0.1837705   0.0711350   0.1852260  -0.2794733
   0.4449008  -0.0182980   0.1504281   0.0000000   0.0000000   0.0000000
   0.1783214   0.4018265  -0.2049918   0.4728653   0.9733740  -0.2359037
  -0.0517809   0.8137663   0.2400570   0.0000000   0.0000000   0.0000000
   0.2985520   0.0520439   0.0926389   0.8661430   0.0327575   0.2472707
   0.0187195  -0.0419842   0.5815683   0.0000000   0.0000000   0.0000000
   0.2766144   0.0167112   0.2394401   0.2408561  -0.6101188   0.8630049
  -0.7359881   1.1465230  -0.1449490   0.0000000   0.0000000   0.0000000
  -0.1630354  -0.2638907  -0.0133768   0.2918158  -0.6192747   1.9829630
  -0.2774850  -0.4992947  -0.6637191   0.0000000   0.0000000   0.0000000
   0.0433512   0.3703079   0.0652571  -1.1593274  -0.3993730   0.4405438
  -0.2149587   0.6091686  -0.1447680   0.0000000   0.0000000   0.0000000
   0.1946347   0.0531802   0.1298364   0.5342539  -1.5997462   0.5046374
  -0.2806155  -0.8365103   0.4005344   0.0000000   0.0000000   0.0000000
  -0.0307679   0.0175108   0.3176034   0.1957286  -0.1066152   0.1052079
   0.0036051  -0.2178117   0.3683831   0.0000000   0.0000000   0.0000000
  -0.0557832   0.2697950   0.0374841  -0.1201707   0.9625937  -1.1580700
  -1.8621636  -0.2807869  -0.0574670   0.0000000   0.0000000   0.0000000
  -0.1238602   0.1519594   0.0715109  -0.3424098   0.8923378  -0.0836960
   0.2025779  -0.0371031  -0.3058769   0.0000000   0.0000000   0.0000000
   0.1304606   0.0967259  -0.0183459  -0.8895010   0.2118309  -0.9523792
   1.9531921   0.9581921   0.1601947   0.0000000   0.0000000   0.0000000
   0.1240936   0.2078230  -0.0830981  -0.3993976   0.4774693  -0.5240629
   0.6290969  -0.4159709   0.6999602   0.0000000   0.0000000   0.0000000
  -0.1805189  -0.1036275  -0.1214323  -0.2521234   0.2348184  -0.5644621
   0.0982907   0.0202472   0.8981848   0.0000000   0.0000000   0.0000000
   0.1885851   0.0059208  -0.0857047  -0.2791374  -0.4954583   0.2049208
  -0.5557863   0.1812341  -0.1269890   0.0000000   0.0000000   0.0000000
   0.3371801  -0.0055297  -0.2319575  -0.2517593  -0.3858725  -0.0906395
   0.9833994  -1.0591998   0.4597541   0.0000000   0.0000000   0.0000000
  -0.1297766  -0.0315010   0.4107473   0.4802592  -0.1699703   1.3736803
   0.3683038  -0.6853304  -0.2147883   0.0000000   0.0000000   0.0000000
   0.0825202  -0.0771245   0.1269882   0.2313978   0.1767054   0.5161130
   0.0560927  -0.0356941  -0.1443303   0.0000000   0.0000000   0.0000000
  -0.1586999  -0.0444030   0.0585474  -1.2160083  -0.4698052  -0.0510099
  -0.6007365  -0.0679210  -0.1794829   0.0000000   0.0000000   0.0000000
  -0.1530020  -0.0868378  -0.0234682   0.3101808  -0.5272265  -0.4335789
   0.4066428   0.2443056   0.2086580   0.0000000   0.0000000   0.0000000
   0.1811562   0.1125382  -0.2041327   0.5242065   0.3552673  -0.2665088
   0.7930857   0.1032297  -0.2783752   0.0000000   0.0000000   0.0000000
   0.1128328  -0.1777427  -0.2672235   0.1696626  -0.1752378  -0.2101369
   0.4077671  -0.4911520  -0.4225382   0.0000000   0.0000000   0.0000000
   0.0182446   0.0146892   0.0006720   0.2618698   0.3781665   0.5699153
  -0.6398799   0.2990860   0.3393797   0.0000000   0.0000000   0.0000000
   0.4035625   0.2325159   0.1800870   0.7096066  -0.4880589   0.3795205
   1.5157253   0.3720171  -0.2419556   0.0000000   0.0000000   0.0000000
  -0.2233343  -0.0531521  -0.2273073  -0.4045487   0.2891071  -0.8359382
   0.2006803   0.5442315   0.2113760   0.0000000   0.0000000   0.0000000
  -0.1976122  -0.0704274   0.0502553   0.4008516  -0.2731041   0.3049629
   0.3541174  -0.3162759   0.1193100   0.0000000   0.0000000   0.0000000
  -0.0418397   0.0260126  -0.1480521   0.0356849  -0.2996802   0.3510229
   0.0072076  -0.6779580   0.0545294   0.0000000   0.0000000   0.0000000
  -0.0237500   0.1492391   0.1125253  -0.2508493   0.1786359  -0.2925801
  -0.3293779  -0.3363498   0.1838158   0.0000000   0.0000000   0.0000000
   0.1012815   0.0222718   0.2131541  -0.3838033   0.1394796   0.0391914
   0.1214902   0.5211397   0.4676436   0.0000000   0.0000000   0.0000000
   0.2118726   0.3272281  -0.0407511   0.2803147   0.5076863  -0.0147710
   0.2157840   0.0926347   0.1062188   0.0000000   0.0000000   0.0000000
   0.0100361  -0.1560506   0.0311883   0.3129367   0.1694254  -0.8167609
   0.5536161  -0.6532212   0.3639368   0.0000000   0.0000000   0.0000000
   0.1453358   0.0264076  -0.1441720  -0.0879905   0.2177709   0.1450744
   0.7007694   0.0177550   0.2749634   0.0000000   0.0000000   0.0000000
   0.0451217  -0.0349846  -0.1649814  -0.4639279  -0.9971475  -1.0004624
  -1.1099819   0.0590809   0.9781583   0.0000000   0.0000000   0.0000000
  -0.1121370   0.0491573   0.0117845  -0.6145682   0.1220968   0.9158434
   0.5463003  -0.3351339  -0.4146429   0.0000000   0.0000000   0.0000000
   0.0567264  -0.0996646  -0.1822451  -0.4368201   0.1305436  -1.0632116
  -0.0944219   0.4810275   0.5831814   0.0000000   0.0000000   0.0000000
  -0.0229197   0.0245936   0.1041148   0.3152077  -1.9464178  -0.4277407
   0.4456007   0.0237060   0.1579889   0.0000000   0.0000000   0.0000000
  -0.0420734   0.0325140  -0.1074572   0.1740939  -0.1921574  -0.4624932
  -0.1794100   0.3777397   0.4111640   0.0000000   0.0000000   0.0000000
   0.0814251   0.2083829  -0.0720667   0.6618844  -0.1082458  -0.2872163
  -1.1001651  -0.7053512  -0.8484579   0.0000000   0.0000000   0.0000000
  -0.0915202   0.0758446   0.0849688  -0.2436093  -0.0904390   0.5697147
   0.2305109   0.4860456  -0.6574104   0.0000000   0.0000000   0.0000000
  -0.0708473  -0.0448605  -0.3348419   0.2565965   0.1526769  -0.3428102
   0.2570499  -0.5316519  -0.5728517   0.0000000   0.0000000   0.0000000
   0.0761535   0.1516851  -0.1142474   0.5884033  -0.1182700   1.4895937
   0.0415698   0.2101708  -0.0783442   0.0000000   0.0000000   0.0000000
   0.1906418   0.3297743  -0.0394629   0.2959076   0.1070024  -0.3291205
   0.3521787  -0.2590247   0.7745953   0.0000000   0.0000000   0.0000000
   0.1285649  -0.0493854   0.0656643  -0.0263648  -0.5549008   0.0603554
   0.0101221   0.3574281  -0.0170748   0.0000000   0.0000000   0.0000000
  -0.1596969   0.0431845  -0.1725293  -0.2875333   0.4848102  -0.2468075
   0.1734674  -0.1906850  -0.3163127   0.0000000   0.0000000   0.0000000
   0.1335242   0.0852875   0.0092543  -0.2524760   0.1925745   0.0193958
  -0.4133594  -0.0351944   0.1355085   0.0000000   0.0000000   0.0000000
   0.0180796   0.0410401   0.1496851  -0.0250339   0.0543741   0.1415970
  -0.2155801   0.3246036  -0.4950540   0.0000000   0.0000000   0.0000000
   0.0659839  -0.1258958   0.1581182  -0.3084434  -1.3801510   0.3054860
  -0.0052633  -0.3260158  -0.7314504   0.0000000   0.0000000   0.0000000
   0.0476763  -0.0739097  -0.0118042   0.7901169  -0.5966203   0.8798894
   0.6466760  -0.3211234  -1.1065646   0.0000000   0.0000000   0.0000000
   0.0767317  -0.0420086   0.0553723  -0.5285939   0.4094439   0.0168119
   0.2302390  -0.5376077   0.8409933   0.0000000   0.0000000   0.0000000
  -0.1976689   0.0622296  -0.0143541  -0.4635071   0.3469802   0.3424208
  -0.1936156  -0.3870046  -0.5717067   0.0000000   0.0000000   0.0000000
  -0.0383936   0.2129271  -0.0369595   0.4808057   0.6967045   0.0810810
   0.1177802   0.7694388  -0.0711148   0.0000000   0.0000000   0.0000000
  -0.0057566  -0.0168297   0.1332882  -0.2976595   0.1245071   0.3166629
  -0.8587123  -0.3553229   0.2872787   0.0000000   0.0000000   0.0000000
   0.1723257  -0.1481342  -0.2223560   0.4878310  -0.3174505  -0.3290356
  -0.0839919   0.2410620  -0.1934746   0.0000000   0.0000000   0.0000000
  -0.3259330  -0.5417469  -0.0247291   0.2112223  -0.7490060  -0.9812581
   0.5019708  -0.7424213   0.6195498   0.0000000   0.0000000   0.0000000
   0.0158332   0.1399194   0.3431478  -0.9376998   0.1654103   0.1574694
   0.7124912   0.2134752   0.4712747   0.0000000   0.0000000   0.0000000
   0.0705376  -0.1492142  -0.1634798   0.2969104  -1.7589882  -0.1571031
  -0.0023135   0.5221211  -0.8706817   0.0000000   0.0000000   0.0000000
   0.0805946  -0.0436343  -0.1654141  -0.8015174  -0.1975534  -0.2933007
   0.1145472  -0.2672508  -0.4073342   0.0000000   0.0000000   0.0000000
   0.0508616   0.0284900   0.1631878   0.7119573   0.3855534   0.7569010
  -0.2527872   0.0941667   0.4280287   0.0000000   0.0000000   0.0000000
  -0.3338250   0.3107909   0.2005863  -0.5329584   0.3160703   0.0737029
  -0.1983814   0.1529498   0.4190701   0.0000000   0.0000000   0.0000000
  -0.1640532   0.0279830  -0.2298684  -0.9529419  -0.5822071   0.5698694
  -0.0854521   0.7305923  -0.1708039   0.0000000   0.0000000   0.0000000
  -0.0518389  -0.0318558   0.0888889   0.0432548  -0.5132166   0.2392999
   0.2914755   0.5399813   0.6689668   0.0000000   0.0000000   0.0000000
  -0.2200602  -0.1087474  -0.1138351  -0.6727550  -1.5378358  -1.3080310
   0.2420105  -0.4328127  -0.6085491   0.0000000   0.0000000   0.0000000
  -0.4470789   0.0841859  -0.1004031  -0.3386891  -0.3509711   0.1405927
  -0.6143999  -0.1447844  -0.5686772   0.0000000   0.0000000   0.0000000
   0.1914809  -0.1331044  -0.1060066   0.5437400   0.1353350  -0.3032773
   0.2253229   0.2949621  -0.0076874   0.0000000   0.0000000   0.0000000
   0.2827026  -0.3131627   0.0327522   0.1232473   0.7515917   0.4426833
   0.3273626  -0.7218804  -0.0579628   0.0000000   0.0000000   0.0000000
   0.0265588   0.1744593  -0.0815221   0.1600138  -0.4832212   0.1693468
   1.4331358   0.1219153  -0.7332461   0.0000000   0.0000000   0.0000000
  -0.0680647  -0.1357816  -0.1024133  -0.1841117   0.1094685  -0.1979641
  -0.2628784  -0.3647857   0.0129742   0.0000000   0.0000000   0.0000000
  -0.0958619  -0.0812018   0.4259077  -1.4333764  -0.5359628  -0.2480259
   0.0787129   0.7644806   0.6537947   0.0000000   0.0000000   0.0000000
  -0.0695477   0.4129328  -0.0444967   0.0437714  -0.0026683   0.0171032
  -0.3353231   0.4730255  -0.1991640   0.0000000   0.0000000   0.0000000
  -0.0434494  -0.1012415   0.0547669   0.7680374   0.1497711  -0.5364960
  -0.7066398   0.0849385  -0.1308674   0.0000000   0.0000000   0.0000000
   0.1444696   0.2142214   0.4074483   0.3481446  -0.2727109   0.9158854
  -0.0385660  -0.2497349  -0.1139165   0.0000000   0.0000000   0.0000000
  -0.0244202  -0.1064963   0.0996971   0.5241904  -0.5827098  -0.6064710
   0.5193655   0.6716527   0.3347628   0.0000000   0.0000000   0.0000000
   0.0673422  -0.1253008  -0.0476129   0.8402552   0.0599528   1.1317196
  -0.4748238   0.8473465  -0.7087950   0.0000000   0.0000000   0.0000000
  -0.0222608   0.2932507  -0.1564740   0.3424426   0.4012268  -0.1288098
   0.3443086   0.2779517   0.1553957   0.0000000   0.0000000   0.0000000
   0.2069087   0.0095165   0.0642481   0.0931957   0.9406636  -0.4650807
   0.1983138   0.5590534  -0.2960926   0.0000000   0.0000000   0.0000000
   0.3086864  -0.0160978   0.2503064  -0.4964832   0.0275019   1.4305167
  -0.8258928   0.6593230  -0.7012345   0.0000000   0.0000000   0.0000000
  -0.0850396   0.1751985  -0.1538466  -0.0582784  -0.5820360  -0.8265520
   0.0609675  -0.0943903  -0.4463794   0.0000000   0.0000000   0.0000000
  -0.2027830   0.0418261  -0.0080216  -0.3605406   1.4509762   1.1449437
  -0.2665375  -0.0794630  -0.3940003   0.0000000   0.0000000   0.0000000
  -0.1353093   0.0808578   0.0430155  -0.4388457   0.2988260  -0.0203386
   0.2798036   0.2247674   0.2777303   0.0000000   0.0000000   0.0000000
   0.0708774   0.1791936   0.2061038  -0.0644030   0.5150842  -0.2664721
  -1.0792408   1.3648192   1.7637732   0.0000000   0.0000000   0.0000000
  -0.0923917  -0.0718556  -0.1572169   0.3342224  -0.0013279  -0.2605152
  -0.0519077   0.2037213  -0.3441254   0.0000000   0.0000000   0.0000000
  -0.1941289   0.3833867  -0.1284821   0.4495484   0.4841636   0.4712356
  -0.1219571   0.3794910  -0.8026965   0.0000000   0.0000000   0.0000000
  -0.1458876  -0.1614012  -0.3211523   0.2936212  -0.2057253  -0.2660327
  -0.8367472   0.0294838  -0.3237855   0.0000000   0.0000000   0.0000000
   0.0673602  -0.1542260   0.1235614  -1.0873336   0.2962405   0.2208918
   0.9001421   0.2979156  -0.1386876   0.0000000   0.0000000   0.0000000
   0.0725085   0.3120190   0.0418360  -0.3392428   0.7302411   0.0955550
   0.4983923  -0.0381222  -0.1779576   0.0000000   0.0000000   0.0000000
  -0.2048268   0.0809458  -0.0478721  -0.5644200   0.2735636  -0.2962792
   0.4042545  -0.4184686  -0.6276158   0.0000000   0.0000000   0.0000000
  -0.1058622  -0.1141555   0.0059875  -0.0908418  -0.8980106  -0.3558756
  -0.0059793  -1.2935958   1.1183471   0.0000000   0.0000000   0.0000000
  -0.4075232  -0.2466281   0.4161234  -0.1249294  -0.7583805   0.4830903
  -0.1993282  -0.6878408   0.3954236   0.0000000   0.0000000   0.0000000
   0.1175356  -0.1517074   0.1215239  -0.2462929  -0.0009966   0.0568647
   0.4040941  -0.3385642   0.3057075   0.0000000   0.0000000   0.0000000
   0.4167097   0.1518081   0.3648085   0.3778125   1.4545392  -0.2550934
   0.3979371   0.4175782   0.0968788   0.0000000   0.0000000   0.0000000
   0.1694777   0.1254161  -0.0306795   0.8055016   0.0576393   0.0352285
  -1.5272386   0.0160051   0.2058453   0.0000000   0.0000000   0.0000000
  -0.1701308  -0.1002285   0.0754807  -1.0080250  -0.7913837   0.5182857
  -0.6751096  -0.7271825   0.4211817   0.0000000   0.0000000   0.0000000
  -0.0836079   0.2414337  -0.0704532  -0.1215730   0.3819681   0.0685021
  -0.7429869  -0.1028715   0.6622032   0.0000000   0.0000000   0.0000000
   0.0249203  -0.0275561   0.0499505  -2.1647866  -1.3624430  -0.5670274
   0.2080711  -0.1710598   0.1801183   0.0000000   0.0000000   0.0000000
   0.1556561   0.2541125  -0.0422355   1.0242437  -0.9410120   0.0498544
  -1.1841795  -0.2232145   0.6358790   0.0000000   0.0000000   0.0000000
  -0.0856901   0.2603402  -0.4909376  -0.3173876   0.8163901  -0.4989481
  -0.1343390   0.2163191  -0.4272464   0.0000000   0.0000000   0.0000000
   0.0557434   0.1095590   0.2027663  -0.6257198   0.1321162  -0.0108884
   0.5325119   0.1249955   0.4031100   0.0000000   0.0000000   0.0000000
   0.1041649   0.1553560  -0.0773522  -0.4718278  -0.0918799   0.0622533
   0.1215075   0.2743978  -0.1063560   0.0000000   0.0000000   0.0000000
  -0.1439312   0.0295022  -0.1486339   0.5828800   0.5629202   0.7851400
   0.4561530  -0.8322658  -1.0526991   0.0000000   0.0000000   0.0000000
   0.0996549   0.0392268   0.0589872   0.3895887  -0.0560214  -0.0466794
  -0.4060504   0.1779847   0.2359821   0.0000000   0.0000000   0.0000000
   0.0221412  -0.3163157   0.0134920   0.0386031  -0.2433838  -0.1405287
   0.0046418  -0.2982508   0.1266484   0.0000000   0.0000000   0.0000000
   0.0633842  -0.1215193  -0.0798046  -0.3839770  -0.9096167  -0.2135561
   0.1181978  -0.5293223  -0.4353163   0.0000000   0.0000000   0.0000000
   0.1503966  -0.1123225  -0.2275045  -0.3885937  -0.6166731  -1.1185782
   0.6241744   0.2427547  -0.5369602   0.0000000   0.0000000   0.0000000
  -0.0679071  -0.3252849  -0.0665268   0.8077774   0.1694268   1.1258727
  -0.6303497  -0.4021462  -0.6527680   0.0000000   0.0000000   0.0000000
  -0.0813557   0.0157672  -0.0828327   0.3006643   0.7843632   0.3508753
  -0.0061502   0.2496916   0.0461229   0.0000000   0.0000000   0.0000000
   0.0320017  -0.0844141   0.0149569  -0.3505613   1.1728359   0.5849842
  -0.1412877   0.8191116   1.1605251   0.0000000   0.0000000   0.0000000
  -0.0775655  -0.0412107   0.0920650   1.3315750  -0.5476821  -0.8000005
  -0.6103076   0.0188547   0.5870102   0.0000000   0.0000000   0.0000000
  -0.1506518   0.2405468   0.4620857  -0.5848409   0.2943960   0.2755250
   0.2589997  -0.3645378  -0.1385395   0.0000000   0.0000000   0.0000000
   0.1661797  -0.2382154  -0.2435972   0.4310752  -0.3787910   0.1861098
   0.3804658  -0.2729567   0.4864017   0.0000000   0.0000000   0.0000000
  -0.4170285   0.1583614   0.3376177   1.1531713  -0.6258588   0.6346117
  -0.4901031   0.1773684   0.6241464   0.0000000   0.0000000   0.0000000
   0.0243622  -0.0046670  -0.0270956   0.1403154  -0.3353301   0.0081377
  -0.1473885  -0.1750142  -0.0788994   0.0000000   0.0000000   0.0000000
   0.1786464   0.0790824   0.0808257   0.1189598  -0.0780871   0.1301086
   0.0305837  -0.8542598   0.6735881   0.0000000   0.0000000   0.0000000
   0.2511365   0.5497890  -0.0126086   1.5075989   0.0727439  -0.7261554
   1.1680127   0.2220146  -0.1202731   0.0000000   0.0000000   0.0000000
  -0.1749702   0.1477115  -0.5184248  -0.8630529  -0.4806462   1.3363154
  -0.0451534   0.4115021  -0.5788532   0.0000000   0.0000000   0.0000000
   0.0375435   0.0566166  -0.3386626   0.6228550  -0.0389397   0.3409719
  -0.0711967   0.7161314  -0.9388386   0.0000000   0.0000000   0.0000000
  -0.2874541  -0.1684710   0.0234000  -0.9465692  -0.4046955  -0.3336310
  -0.2477737  -0.4138344   0.4000614   0.0000000   0.0000000   0.0000000
  -0.1471741   0.0844088  -0.2397602   1.8513480   0.0799123   0.6391654
   1.0085214   0.7464239   0.4833258   0.0000000   0.0000000   0.0000000
  -0.2806545   0.3728808  -0.3056799   0.2492204   0.2091924  -1.0294026
  -0.6475580  -0.5078193   0.2297327   0.0000000   0.0000000   0.0000000
   0.2421498   0.1441531   0.0281351   0.0757710   0.8311808  -0.6008661
   0.2096819   1.0427891   0.4163832   0.0000000   0.0000000   0.0000000
   0.0871968  -0.1019735   0.0635884   0.1870091  -0.1597653   0.4668938
   0.2947163   0.0464096   0.1093547   0.0000000   0.0000000   0.0000000
   0.2590729   0.2275158   0.0047905  -0.4265789   0.0470899   0.0574374
   0.5468279  -0.2175839   0.5635681   0.0000000   0.0000000   0.0000000
   0.2425124  -0.0131038   0.3182848  -1.4695435  -0.6131737  -0.3456164
   0.4797525   0.0785432   0.3523186   0.0000000   0.0000000   0.0000000
   0.0900445   0.0489426   0.1959837  -0.0153658   0.0930701   0.2961963
  -0.4752360   0.2665477   0.2244014   0.0000000   0.0000000   0.0000000
   0.0644137  -0.2492230  -0.3321518  -0.7324135  -0.6977036   0.1318908
  -0.3078859  -0.1971570  -0.2914020   0.0000000   0.0000000   0.0000000
  -0.0093800  -0.0207141   0.1801731  -1.0701005  -0.3093486   0.9826482
   1.0327440   0.2814854  -0.5354695   0.0000000   0.0000000   0.0000000
   0.0576333  -0.2146967   0.0442407  -1.6834471  -0.1772516   0.1561800
  -0.2046188   0.1613805   0.1504932   0.0000000   0.0000000   0.0000000
  -0.0407742  -0.0694814  -0.2249907   0.9810766   1.3702030   0.2338517
  -0.2645061   0.4275615   0.1718952   0.0000000   0.0000000   0.0000000
   0.1045988  -0.2739102   0.2673875   0.6182710  -0.3303428  -0.1488751
   0.8814819  -0.2055501  -0.3729496   0.0000000   0.0000000   0.0000000
  -0.0702375  -0.0728667  -0.0223068  -0.1162799  -0.8661706   0.1247441
   0.2446888  -0.6567824  -0.6406484   0.0000000   0.0000000   0.0000000
   0.5724061   0.0690768   0.0053929  -0.6806758   1.0596208   0.5686212
  -0.2293501   0.7195915   0.2368863   0.0000000   0.0000000   0.0000000
   0.3877359  -0.2506917   0.2038410   1.0417670   0.3442023  -0.0641015
   0.8594533   0.4092507  -0.1943926   0.0000000   0.0000000   0.0000000
  -0.1745258   0.0907873  -0.3259604  -0.3589680  -0.0583578  -0.9857670
  -0.3004680  -0.0111509  -1.0131821   0.0000000   0.0000000   0.0000000
  -0.2643208  -0.0498748   0.2428416  -0.2098665  -0.0641710   0.3405914
  -0.1389364   0.5988069   0.2360737   0.0000000   0.0000000   0.0000000
  -0.2113811   0.4426503  -0.0504967   0.3925203  -0.2995749   0.0211824
   0.5976951   0.9030076   0.0009807   0.0000000   0.0000000   0.0000000
  -0.0620454  -0.0791251   0.0268775   0.4914131   0.2801414   0.1124270
   0.5538390   0.3526840   0.1222112   0.0000000   0.0000000   0.0000000
   0.2147440   0.1196878   0.1570025   0.0299710   0.3535002  -0.3029201
   0.3741529   0.2805309   0.1725996   0.0000000   0.0000000   0.0000000
  -0.2043886   0.0935165   0.2371266  -0.4144571   0.4131961  -0.5813969
  -0.2398947   0.1262295   0.7100022   0.0000000   0.0000000   0.0000000
  -0.0145022  -0.1316876  -0.1844063  -0.5411326  -0.1037517  -0.9021453
  -0.4450529  -0.6626316   0.3106735   0.0000000   0.0000000   0.0000000
  -0.1928758  -0.2908953   0.0156555  -0.8407682   1.3010566   0.4325502
  -0.6858654  -0.3207156   0.2108364   0.0000000   0.0000000   0.0000000
  -0.2240753   0.2539073  -0.0177596  -0.0956561   0.4714980   0.5592103
  -0.2521401   1.2141447  -0.6244671   0.0000000   0.0000000   0.0000000
   0.1381985  -0.2492360   0.1608929   1.0982255   0.9765477  -0.2917384
   0.5831102   0.3655334   0.0034995   0.0000000   0.0000000   0.0000000
   0.0117356   0.0148757   0.1154224   0.2757674   0.0079974   0.5386218
   0.5937119  -0.4142177  -0.2796062   0.0000000   0.0000000   0.0000000
  -0.0497606   0.1728394  -0.3737780   0.2089561   0.3534313   0.1136826
   0.4078394   0.4596298   0.4622956   0.0000000   0.0000000   0.0000000
   0.0771920   0.0132596  -0.0997750   0.4886512   0.7105076  -0.9316151
   0.6105748   0.9095723   0.4987375   0.0000000   0.0000000   0.0000000
   0.1108387  -0.0146351   0.0781954   0.9933280   0.0210007  -0.6022647
  -0.4303844   0.5260548   0.3278664   0.0000000   0.0000000   0.0000000
   0.0770196  -0.0619266  -0.1376972  -0.8750090   0.0545280   0.0932331
  -0.7977622   0.0572594   0.1278709   0.0000000   0.0000000   0.0000000
  -0.2798011   0.0851383  -0.0656171  -0.5111190   0.5487363   0.1477071
   0.0506141   0.9136112  -0.1284817   0.0000000   0.0000000   0.0000000
   0.1239111   0.0380907  -0.2254635  -0.3038105  -0.3614373   1.1896106
   0.3397085  -0.2258167   0.2712509   0.0000000   0.0000000   0.0000000
  -0.3406012  -0.2883550  -0.1448393  -0.1821796  -0.2260378   0.2247449
   0.3605472  -0.2294321   0.8743714   0.0000000   0.0000000   0.0000000
   0.3341860  -0.1172555   0.0341870  -0.4094463   1.0810802   0.0082127
  -0.4970596  -0.5511749  -0.6874535   0.0000000   0.0000000   0.0000000
   0.2539818   0.3875963   0.1246822   0.1039351   1.1452494   0.3247561
  -0.6030405  -0.5428880  -0.2720807   0.0000000   0.0000000   0.0000000
  -0.2756673   0.0541092   0.0134339  -0.6755099   0.0455668  -0.2106148
   1.2299875  -0.3370568   0.4557629   0.0000000   0.0000000   0.0000000
   0.1024432   0.0410340   0.1506643  -0.3125561   0.4132704  -0.9233760
   0.1341671  -0.0952479   0.4571381   0.0000000   0.0000000   0.0000000
  -0.0535167  -0.3644046   0.3771839   0.4600627   0.1081092  -0.4515877
   0.7194209   0.7016192   0.1722567   0.0000000   0.0000000   0.0000000
   0.0640663  -0.0253985  -0.1132400  -1.0699620   0.1897376   0.8940785
   0.4176797  -0.1681437  -0.5150376   0.0000000   0.0000000   0.0000000
   0.0582100  -0.1699676  -0.2153516  -0.3370751  -0.5358454   0.6628021
   0.9198722  -0.1052236   0.3930907   0.0000000   0.0000000   0.0000000
   0.0063405   0.1129809   0.0101183  -0.1181371   0.3478179   0.2054446
  -0.2405296   0.1675980   0.7086588   0.0000000   0.0000000   0.0000000
   0.1602189  -0.4346198  -0.0281060   0.4378972  -0.6025485  -0.3839497
  -0.4865329   0.4384311   0.6013646   0.0000000   0.0000000   0.0000000
  -0.0039079  -0.0736921   0.1324221  -0.2762826  -0.6816239  -0.5844558
   0.1715634   0.4813065  -0.7069250   0.0000000   0.0000000   0.0000000
  -0.1142450   0.0519012  -0.2969285  -0.6960990   1.0374961  -1.0616036
  -0.6335902   0.4589188  -0.7010861   0.0000000   0.0000000   0.0000000
   0.0994022  -0.1199745   0.0637649  -1.1176830   1.6575914  -0.2438132
   0.7287183  -1.0935214  -0.1279346   0.0000000   0.0000000   0.0000000
   0.0012936  -0.0371033   0.3368201  -0.5521361  -0.6119312  -0.3502220
  -0.1369022   0.6716814   0.5906735   0.0000000   0.0000000   0.0000000
  -0.2361820  -0.1501891  -0.0116695  -0.9854763  -1.8349422  -0.9019162
  -0.3898888  -0.5587761   0.7984962   0.0000000   0.0000000   0.0000000
   0.2037628   0.2135727  -0.0748121  -0.4934775  -0.4845813  -0.4470565
   0.5888263  -0.3961575  -0.1162168   0.0000000   0.0000000   0.0000000
   0.1119655  -0.1058671   0.0453168   0.6771208  -0.0060035   0.6645720
  -0.0696384   0.3678596  -0.2920235   0.0000000   0.0000000   0.0000000
  -0.1365398  -0.1322764   0.1450378  -0.4485100  -0.3915262  -0.5695279
   0.8995076  -0.2625205  -0.2613307   0.0000000   0.0000000   0.0000000
  -0.0177826   0.1817301  -0.0849529  -0.5280245   0.0801266  -0.5864504
  -0.0722313   0.2501085   0.4043761   0.0000000   0.0000000   0.0000000
  -0.1296792  -0.1043255   0.0194598   0.0229640   1.0093353  -0.3601900
   0.9710101  -1.0614907  -0.0469650   0.0000000   0.0000000   0.0000000
  -0.0410841   0.1213898  -0.0980650  -0.5987304  -0.5419537  -0.1039331
   0.9563937  -0.1479033   0.1001068   0.0000000   0.0000000   0.0000000
   0.0347856   0.0370914   0.1023437  -0.0925914  -0.0290771  -0.0562989
  -0.0410702   0.0013142   0.1108857   0.0000000   0.0000000   0.0000000
  -0.0061836   0.0180801   0.1009642   0.0709439  -0.2039688   0.5809281
  -0.5408407  -0.1798354  -0.0822493   0.0000000   0.0000000   0.0000000
  -0.0760792  -0.0147819   0.1724210  -0.2456645  -0.1285861  -0.2890477
  -0.3338611  -0.6143946  -1.0703607   0.0000000   0.0000000   0.0000000
   0.3005856   0.0587640   0.0555261  -0.9035259  -0.7480378  -0.7710994
   0.3906802   0.0702182   0.1972724   0.0000000   0.0000000   0.0000000
  -0.3149859   0.2083883   0.0601358  -0.3851394   0.5040355  -0.2429202
  -0.0102404   0.0480111   0.5994785   0.0000000   0.0000000   0.0000000
  -0.1063063  -0.2396997  -0.0391101   0.6102060   0.0575666   0.2232989
   0.5267167  -0.4898433   0.2061399   0.0000000   0.0000000   0.0000000
   0.4336952   0.0058239  -0.2935519  -0.5407501  -0.8317265  -0.1226882
   0.2110327  -0.2194131  -0.2745799   0.0000000   0.0000000   0.0000000
   0.0022225   0.1545922   0.1951593  -0.4093342   0.0370704   0.5128798
  -0.5069479  -0.8277806   0.7717895   0.0000000   0.0000000   0.0000000
  -0.0577548   0.3187215  -0.0482734   0.3492528   0.0623749   0.5456794
   0.2582089   0.0370139  -0.5700236   0.0000000   0.0000000   0.0000000
   0.2645689  -0.0157801  -0.0607618  -0.3527200   0.1428275  -0.0813070
   0.1298473  -0.4598340  -0.7395886   0.0000000   0.0000000   0.0000000
  -0.2641483   0.2080728   0.3368366  -0.6387152  -0.0876732   0.2585035
  -0.0140092  -0.0560884  -0.7791386   0.0000000   0.0000000   0.0000000
   0.0142518  -0.2487425   0.2377894   0.5151798  -0.3597962  -0.3972718
   0.4839865  -0.5080699   0.4725863   0.0000000   0.0000000   0.0000000
   0.1316246  -0.2277187   0.0201596  -0.3418242  -0.3344017  -0.4805582
   0.3272575   0.3846105  -0.0967995   0.0000000   0.0000000   0.0000000
   0.2189510   0.3021854  -0.0761000   0.9465758   0.2961263   0.1074933
  -0.1533738  -0.2244913  -0.2970296   0.0000000   0.0000000   0.0000000
  -0.0271365  -0.0803547   0.1622690  -0.2471475   0.0807886   0.7204068
  -0.1601859   0.0263310  -0.3033980   0.0000000   0.0000000   0.0000000
   0.4696212  -0.0345156   0.1711679   0.4292479  -0.1447280  -0.3323287
   0.2281014   0.5031993   0.4396309   0.0000000   0.0000000   0.0000000
  -0.0724813   0.3021228  -0.2332003   0.0322883   0.4321095  -0.3940689
  -0.1334144   1.1540894  -0.0520917   0.0000000   0.0000000   0.0000000
  -0.2594907   0.1419360  -0.2822979  -0.2249099   0.2068820   1.2850906
   0.1481535  -0.5381905  -0.8549417   0.0000000   0.0000000   0.0000000
   0.2167329  -0.3945244   0.0629652   0.3117803  -0.4782831   0.0334523
   0.2946284  -0.2747131   0.1186818   0.0000000   0.0000000   0.0000000
  -0.2209778  -0.0122167  -0.2133510  -1.3139993  -0.4319827   0.4011700
   0.0805010   0.4246782   0.4947147   0.0000000   0.0000000   0.0000000
   0.0887665   0.2080858  -0.0668150  -0.9599130  -0.0724030   0.2993331
  -0.3508484   0.0639719  -0.1161495   0.0000000   0.0000000   0.0000000
   0.1865535  -0.0291676  -0.4277702   0.6223174  -0.9154070  -0.2738362
   0.0149216  -0.3086507  -0.2438250   0.0000000   0.0000000   0.0000000
  -0.0672157   0.0978986   0.0166325   0.0328841   0.4397100  -1.0823483
  -0.0635431   0.0426183   0.4681161   0.0000000   0.0000000   0.0000000
  -0.0684813   0.0466296  -0.1093056  -0.0140618   0.0398155   0.1127999
  -0.9575131   0.5182083  -0.2821055   0.0000000   0.0000000   0.0000000
   0.1606192   0.1593125  -0.2716775  -0.2677544   0.4863924   0.2494647
   0.1593379  -0.2148698   0.5598540   0.0000000   0.0000000   0.0000000
   0.1859763  -0.2176078  -0.0709096  -0.5880905  -0.5178207  -0.0794614
   0.3881668   0.3910974  -0.1151891   0.0000000   0.0000000   0.0000000
   0.1752925  -0.1465479  -0.0810662   0.2571289  -0.4365930   0.9876337
  -0.0672309  -0.0108617  -0.9711957   0.0000000   0.0000000   0.0000000
  -0.0707296   0.0136996   0.0794437   0.9118082  -0.5206186  -0.1750780
   0.0771979  -0.0574004  -0.3068249   0.0000000   0.0000000   0.0000000
  -0.1520337   0.1560676  -0.1213660   0.5124953  -0.8214296  -0.6367924
   0.7501768  -0.8562004   1.2435255   0.0000000   0.0000000   0.0000000
  -0.2466879   0.0804545   0.1328271  -0.1347038   0.0949597   0.1277924
  -0.4363685   0.1408971  -0.0715009   0.0000000   0.0000000   0.0000000
   0.0723047   0.2036493  -0.0167973   0.8267377  -0.3543661  -0.7865056
   0.1652310  -0.3187345   0.2021885   0.0000000   0.0000000   0.0000000
  -0.0631454  -0.0125056  -0.0445119   0.5768283   0.6973575  -0.6919937
   0.4697850  -0.5146815   0.2133302   0.0000000   0.0000000   0.0000000
   0.1961149  -0.2926387   0.3719212   0.4369655  -0.1979373  -0.4438291
  -0.3332876  -1.1028092   0.6084199   0.0000000   0.0000000   0.0000000
   0.1058976  -0.0268304  -0.2482930   0.0476290  -0.0715943  -0.6062062
   1.7551106  -0.5710482  -0.0721626   0.0000000   0.0000000   0.0000000
   0.1028472   0.0703759   0.0290859   0.2421483   0.3927212   0.5026647
  -0.1156446   0.4007847   0.7786664   0.0000000   0.0000000   0.0000000
   0.2627098  -0.0410174  -0.1566406  -1.1339431  -1.2572887   0.4266780
  -0.1417482  -0.3137708   0.1383421   0.0000000   0.0000000   0.0000000
  -0.0369243  -0.0076719  -0.2437965   0.3552132  -0.4479525  -0.1590722
  -0.6587270  -0.1578162   0.0305932   0.0000000   0.0000000   0.0000000
  -0.3175472  -0.2700446  -0.0744217  -1.3833249   0.7435155   0.9192507
   0.6950221   0.6943267  -0.6693404   0.0000000   0.0000000   0.0000000
   0.0649684   0.0669249  -0.1079196  -0.2283561   0.0484157   0.0039068
   0.1197652   0.1868109  -0.2102999   0.0000000   0.0000000   0.0000000
  -0.0706243  -0.2119172  -0.1654787   0.3014786  -0.6346571  -0.1691029
  -0.1819711  -0.0381803  -0.7866742   0.0000000   0.0000000   0.0000000
  -0.1540554  -0.0121202  -0.0317769  -0.1737084   0.1587838  -0.1717030
   0.0083079  -0.1649513   0.4877829   0.0000000   0.0000000   0.0000000
  -0.1470512   0.1988028   0.2843664   0.2944080   0.6539401  -0.1494172
  -1.3299170  -0.4549261  -0.3326414   0.0000000   0.0000000   0.0000000
  -0.1805851  -0.0084339  -0.0476291  -0.2629016  -0.2732792   0.7497807
  -0.8771763  -0.8517101  -0.7872979   0.0000000   0.0000000   0.0000000
   0.1011490  -0.2237427   0.5033887   0.7686780   0.0039739   0.1611887
   0.3943748   0.7594911   0.6396908   0.0000000   0.0000000   0.0000000
  -0.0828587  -0.2795477  -0.1249094  -0.1513100   0.7148735   0.7095308
   0.5361570   0.3863462  -0.9864762   0.0000000   0.0000000   0.0000000
   0.1216490   0.0509732   0.1196231   0.8488297   0.4233254  -0.4262825
   0.2460544   0.4655511   0.4778657   0.0000000   0.0000000   0.0000000
   0.0954992  -0.0944716  -0.1933572   0.1132799   0.0079158  -0.4058666
   0.3325837  -0.0930503   0.0218148   0.0000000   0.0000000   0.0000000
   0.1732228   0.0087677   0.0330168  -0.6878647  -0.5718310   0.4242716
   0.7353740  -0.5631647  -0.5958167   0.0000000   0.0000000   0.0000000
   0.0405746   0.1980508   0.2034252  -1.2088500  -0.2825406  -0.3100073
   0.1277844  -0.1893545   0.0819751   0.0000000   0.0000000   0.0000000
   0.2312297   0.3870911   0.0230655   0.1254218   0.5103673  -0.1061022
   0.1988147  -0.5468367  -0.1778191   0.0000000   0.0000000   0.0000000
   0.0678123  -0.2218977  -0.0312928   0.8019950   0.5570326   0.9790768
   0.2419932   0.5805210  -0.8575760   0.0000000   0.0000000   0.0000000
  -0.2076706  -0.1253800   0.1241052  -0.7549357  -0.7598632   0.0308657
  -0.7696712   0.2642529   0.5323285   0.0000000   0.0000000   0.0000000
   0.2367876  -0.2476702  -0.1013388   0.4462197   0.0532873   0.0444989
  -0.3054216  -0.2131629   0.2432260   0.0000000   0.0000000   0.0000000
   0.1785119  -0.1062316  -0.4161704  -0.3822529   0.3732494  -0.8540448
  -0.3457323  -1.2323405  -0.2748064   0.0000000   0.0000000   0.0000000
   0.0817640   0.0045000   0.0070583   0.1743669   0.8056624  -0.6905522
   0.6763448  -0.6894615  -0.3716022   0.0000000   0.0000000   0.0000000
   0.0839686   0.1628270   0.0107758   0.3330597  -0.5937949   1.2786431
  -1.3213603   0.1193826  -0.0488857   0.0000000   0.0000000   0.0000000
  -0.2961678   0.0660738   0.0141541  -0.4661308   0.0025859  -0.1831207
   0.4926997  -0.1078247   0.7099609   0.0000000   0.0000000   0.0000000
   0.2175180  -0.2526122   0.0966043  -0.3930603   0.3341384  -1.5746604
   0.2098659   0.2568507  -0.6043585   0.0000000   0.0000000   0.0000000
   0.1151167   0.0377082  -0.1378650  -1.2355260  -0.2480480  -0.8371259
   0.4180897  -0.0126463  -0.0263583   0.0000000   0.0000000   0.0000000
   0.0711249  -0.2878799  -0.1765781  -0.0443393  -0.6336051  -0.1562630
  -0.7278998  -1.5056413  -1.0452791   0.0000000   0.0000000   0.0000000
  -0.0864512   0.1511339   0.1007931   0.9174828   0.4543495  -1.0979320
   0.2388830   0.6127962   0.8653989   0.0000000   0.0000000   0.0000000
  -0.0119799   0.0650622   0.0138770   0.0852125   0.0833131  -0.4366652
  -0.1427587  -0.0906617   0.1667674   0.0000000   0.0000000   0.0000000
  -0.0724411   0.3052097  -0.3211451  -0.7729898   0.7554498   1.7193224
  -0.5814193   0.2672499   0.8998571   0.0000000   0.0000000   0.0000000
  -0.0699075   0.1273731  -0.0372760   0.7850903  -0.1294738  -0.0889621
  -0.5620914   0.3778145   0.2301704   0.0000000   0.0000000   0.0000000
   0.0410074   0.1941166  -0.0546341   0.6415090  -0.4784910  -0.7048423
   0.2635121   0.0364608  -0.2381125   0.0000000   0.0000000   0.0000000
   0.0761389   0.0642753  -0.1954724   0.5670267  -0.5609831  -0.3140322
   0.3898144  -0.4797665  -0.2988021   0.0000000   0.0000000   0.0000000
  -0.3432837   0.2181826  -0.4306117  -0.5830712  -0.8525432  -1.0474065
   0.1047579   0.8971015  -0.9634021   0.0000000   0.0000000   0.0000000
  -0.1654998   0.0140877   0.1380571  -0.4738236  -0.4030250  -0.6260707
  -0.6843887  -0.0266334   0.1756954   0.0000000   0.0000000   0.0000000
   0.0383018  -0.2602823   0.0395589   0.5375562  -0.6140933  -0.0643536
   0.0400380   0.1676153  -0.4495696   0.0000000   0.0000000   0.0000000
  -0.1002664  -0.0686683  -0.1981372  -0.1502664   0.7186254   0.2219617
   0.0496258  -0.6966562  -0.9407365   0.0000000   0.0000000   0.0000000
  -0.1747417   0.0605537   0.2204785  -0.3769116   0.6231418   1.2547670
   0.3864676  -0.3781278   0.0745932   0.0000000   0.0000000   0.0000000
  -0.0919454   0.0389767  -0.1142447  -0.4553938  -0.4307888  -0.9380401
   0.1233096   0.5250008  -0.4234406   0.0000000   0.0000000   0.0000000
   0.3476503   0.0043622   0.1089526   0.3776896   0.1502239   0.1214156
   0.2258702  -0.8012860   0.2328172   0.0000000   0.0000000   0.0000000
  -0.1825770  -0.0519106  -0.1614990  -0.2710995   0.9109454  -0.4150338
   0.3545884  -0.1556378   0.5382259   0.0000000   0.0000000   0.0000000
   0.1021179  -0.1948814  -0.1010033  -0.3055821  -0.9305740  -1.4819837
   0.3682284   0.5956243   1.3488698   0.0000000   0.0000000   0.0000000
   0.0087317   0.1165728  -0.0311296  -1.1872838   0.0555852   0.1069879
  -2.1606722   0.2971896  -0.4062210   0.0000000   0.0000000   0.0000000
  -0.1082632   0.2658847  -0.3410833  -1.4516395  -0.0467178   0.0038755
  -1.1320715  -0.2500573   0.5412607   0.0000000   0.0000000   0.0000000
  -0.0199858   0.1417612   0.0429570  -0.3535957  -0.1228359   0.2031876
   1.2238150   1.2771377  -0.2982192   0.0000000   0.0000000   0.0000000
  -0.1422398  -0.1564941  -0.2711816  -0.4019827  -0.3802737  -0.8671997
   0.0427110   1.0473240  -1.8744732   0.0000000   0.0000000   0.0000000
   0.3996260   0.1979036  -0.2283815   1.6320839  -0.5300329  -0.8240546
   0.1298130  -0.2299143   0.9528582   0.0000000   0.0000000   0.0000000
   0.0762940   0.0478525   0.2046763  -0.8377244  -0.8054290   0.0606122
   0.2783995  -0.2266495   0.2578765   0.0000000   0.0000000   0.0000000
   0.0557293  -0.1093998  -0.1265971   0.4816062   0.3271503   0.0001170
   0.1196639  -0.0884971  -0.1111716   0.0000000   0.0000000   0.0000000
  -0.0549018   0.2823728   0.1347034  -0.6178427  -0.1053957   0.6464041
  -0.7127773  -0.3177124   0.7224960   0.0000000   0.0000000   0.0000000
   0.2936989  -0.2944183  -0.1136412   0.4976193  -0.0246304   0.3021203
   0.2316886  -0.2393008  -0.1417830   0.0000000   0.0000000   0.0000000
  -0.0140087   0.2392121   0.0219523   0.0941074   0.4931880   0.4662945
   0.4136849   0.3834272   0.0634020   0.0000000   0.0000000   0.0000000
   0.1577394  -0.0978438  -0.0672614   0.2598209   1.4114770  -0.4185394
   0.3991190   1.0196473  -0.5046058   0.0000000   0.0000000   0.0000000
   0.1470953  -0.0024855   0.0194476  -0.3060585   0.6506791   1.3524658
  -0.2542066  -0.0449993  -0.3495225   0.0000000   0.0000000   0.0000000
   0.2650366   0.2486563  -0.1813283   0.3458422  -0.0367703   0.7691636
   0.6231623  -0.1415108  -0.4658533   0.0000000   0.0000000   0.0000000
   0.0562616  -0.0191732   0.0697698  -0.9666984  -0.4008094  -0.0780629
   0.5187136   0.0715787   0.1672163   0.0000000   0.0000000   0.0000000
   0.0536711  -0.1369364   0.2640847   0.3608155  -0.1776149  -0.3143801
   0.3264946  -0.2218758   0.2667587   0.0000000   0.0000000   0.0000000
  -0.0333355  -0.0699525   0.0083386  -0.6066264   0.8864979   0.2666513
  -0.2853384   0.1234156  -0.0080169   0.0000000   0.0000000   0.0000000
   0.1145906  -0.1600845   0.3489061  -0.4453138   1.0133507  -0.1991432
   0.9403438  -0.5461570  -0.6024542   0.0000000   0.0000000   0.0000000
  -0.0188333   0.2818779  -0.1627306  -0.1427576  -0.6804365   0.2407823
   0.6354072   0.2219448  -0.2554936   0.0000000   0.0000000   0.0000000
  -0.3272182   0.2847744  -0.0255680   0.2819950  -0.0811587   0.0937409
   0.4406017  -0.3631697  -0.1715358   0.0000000   0.0000000   0.0000000
   0.1154137  -0.0267236  -0.0773583  -0.1923646   0.0451743  -0.1765495
   1.3135900  -0.1495315   0.0485942   0.0000000   0.0000000   0.0000000
   0.2044452   0.1318506   0.1682600  -0.6187203   0.1094675  -0.8264596
   0.0289527   0.6906349  -0.4442529   0.0000000   0.0000000   0.0000000
  -0.1059938   0.0229491   0.1706985   0.1221171  -0.4895540   1.1468215
  -1.3214902  -0.2812812  -0.0120765   0.0000000   0.0000000   0.0000000
   0.0720547  -0.0347751   0.1771226   0.0042323  -0.0647161  -0.0119519
   0.0355006  -0.0826351   0.2127104   0.0000000   0.0000000   0.0000000
  -0.0628171  -0.0809388   0.0940459   0.9137404   0.3478657   0.0724886
  -0.6930946   0.7421681   0.3710696   0.0000000   0.0000000   0.0000000
   0.0501184  -0.1244912  -0.2498551  -1.1027596  -0.5568530   0.2212209
   0.0411558  -0.1036210   0.4679574   0.0000000   0.0000000   0.0000000
   0.0941226   0.0816935   0.0742173   0.6317416   0.0349949   0.3915921
   1.3816401   0.3385811   0.7602283   0.0000000   0.0000000   0.0000000
  -0.0656323   0.0915845   0.1152144   0.0986062  -0.6379775   0.4776847
  -0.1515182  -0.2128118  -0.0628432   0.0000000   0.0000000   0.0000000
  -0.2586683   0.0031263  -0.3927970  -0.5485753   0.0041324  -0.7936899
  -0.0497419  -0.1251210  -0.0321876   0.0000000   0.0000000   0.0000000
   0.0100485   0.0279681  -0.1748123   0.5445929   0.8289760  -0.5766797
  -0.5438434  -0.0625895   0.7103120   0.0000000   0.0000000   0.0000000
   0.0272226   0.0872784   0.0919924   1.1318420  -0.0962719  -0.8463360
   0.0669702   0.0148739   0.4320923   0.0000000   0.0000000   0.0000000
   0.1716614  -0.3152345   0.2548990  -0.0404581  -0.6597090  -0.4185456
   0.8089418  -0.7224385   0.7460599   0.0000000   0.0000000   0.0000000
   0.0535792  -0.0728693   0.2238223   0.4236933   0.3295508  -0.3216848
  -0.1849941   0.4651136   0.7499944   0.0000000   0.0000000   0.0000000
   0.0513780   0.0367018  -0.0133934  -0.4841620   0.1221674  -0.9193428
   0.3098717   1.1313400   0.4291241   0.0000000   0.0000000   0.0000000
  -0.2692600  -0.0988885  -0.1770779  -0.3410197   1.0989437  -0.0125410
   0.4844628  -0.1694542  -0.6667585   0.0000000   0.0000000   0.0000000
   0.0736039  -0.0149066   0.0879086  -0.0638332   0.0934614   0.2519286
   0.2636086  -0.1678242  -0.0981053   0.0000000   0.0000000   0.0000000
  -0.0687594  -0.0794358   0.1432885  -0.0768270   0.0691819   0.5601405
   0.1283944  -0.4250555  -0.5827422   0.0000000   0.0000000   0.0000000
   0.0985672   0.2328507  -0.0633303  -1.2894049   0.9670249  -0.7300115
  -0.6002546  -0.9960293   0.9143351   0.0000000   0.0000000   0.0000000
  -0.0933811  -0.2587584  -0.0582677  -0.1180055  -0.6760084   0.5167747
   0.4400779   0.2768172   0.1201631   0.0000000   0.0000000   0.0000000
  -0.1705666  -0.2002027   0.0705097  -0.4093086  -0.2979331  -0.1453114
   0.2088935  -0.2158146  -0.5381588   0.0000000   0.0000000   0.0000000
  -0.1165452   0.1118159   0.0544054  -0.0685447  -0.2342481   0.4234525
  -0.1617733   0.6011399  -0.7252671   0.0000000   0.0000000   0.0000000
  -0.3281580  -0.0435735   0.1860517  -0.2937750  -0.2749527  -0.2682774
   0.4277092  -1.1401928   0.2266236   0.0000000   0.0000000   0.0000000
  -0.2748403   0.0548100  -0.0100148   0.2184220  -0.5035396  -0.0351494
   0.0101647   0.6256290  -0.4979309   0.0000000   0.0000000   0.0000000
   0.0298701   0.1858623   0.1582198  -0.0270011  -1.0238996  -0.5532332
   0.5660546   0.2650926  -0.5755989   0.0000000   0.0000000   0.0000000
  -0.3172115  -0.0279404  -0.1235067   0.0126220   0.1635810  -0.5042249
  -0.4323820  -0.1041987   0.3997504   0.0000000   0.0000000   0.0000000
  -0.1071048   0.1826222   0.1964325   0.6146307  -0.1035301  -0.1425401
  -0.0840173  -0.1496815  -0.1875525   0.0000000   0.0000000   0.0000000
   0.0790345  -0.0524664  -0.2671887   0.9497508  -0.2503152   0.1313048
   0.1088246   0.4681420  -1.2284367   0.0000000   0.0000000   0.0000000
  -0.0538468   0.1629663   0.0991904  -0.0917838   0.5151076   1.4747540
   0.2080528   0.1149825   0.1730700   0.0000000   0.0000000   0.0000000
  -0.2426294   0.2390176  -0.0504060   0.4842453  -0.4588977  -0.4187542
  -0.4359130  -0.7410562   0.3726128   0.0000000   0.0000000   0.0000000
   0.0482370   0.1492757   0.0740108   0.0065953  -0.1871003  -0.0545022
   0.0995338   0.4590702   0.1089187   0.0000000   0.0000000   0.0000000
  -0.2072312   0.0657089   0.4146039  -0.1651336   0.7154728   0.1033810
   1.1079450  -0.0752003   1.0856557   0.0000000   0.0000000   0.0000000
  -0.3123509  -0.4709982  -0.0451665   0.1848158  -0.8142565  -0.4169447
  -0.9917981  -1.6271786   0.2446774   0.0000000   0.0000000   0.0000000
   0.0213033  -0.0522268  -0.0892339   0.1053720   0.2964790  -0.5800557
  -0.0891262  -0.6306933  -0.3479710   0.0000000   0.0000000   0.0000000
  -0.0998819  -0.1027494   0.1667594   0.0828721   0.4958453   0.0475078
   1.0197936   0.5695455   0.4053768   0.0000000   0.0000000   0.0000000
   0.0181537  -0.3594287   0.2468223  -0.7797574   0.0617155   0.1222498
   0.5661761   0.1618637  -0.0522002   0.0000000   0.0000000   0.0000000
   0.1219390  -0.1449751   0.0615750  -0.0346475  -0.5363339  -0.4207802
   0.0578311  -0.6906973  -0.3092859   0.0000000   0.0000000   0.0000000
  -0.0826880  -0.1613960  -0.0697133   0.5519343  -0.3579014  -0.2902434
   0.4507447   1.1116077   0.2457208   0.0000000   0.0000000   0.0000000
  -0.0586783  -0.2036949   0.0809672   0.3230744  -0.3803385  -0.5336162
  -0.1724156  -0.5537796  -0.6789191   0.0000000   0.0000000   0.0000000
  -0.0043814  -0.1384424   0.1374692  -1.3078490   1.1725516  -0.5729377
   0.3058130  -0.3573313  -0.1656056   0.0000000   0.0000000   0.0000000
  -0.0118731   0.4139304  -0.0173981   0.2289118   0.1486169  -0.0679123
   0.5566881  -0.2283669  -0.0974746   0.0000000   0.0000000   0.0000000
   0.1357383  -0.1615269  -0.1371612   0.1689524  -0.2076958  -0.1621224
  -0.0850445   0.2269045  -0.0310687   0.0000000   0.0000000   0.0000000
   0.4039215  -0.2616730   0.1845375   0.1854619  -0.6610367   0.4707358
  -0.1936040   0.1651831   0.6271692   0.0000000   0.0000000   0.0000000
  -0.1724008  -0.0603663  -0.2694857   0.3700620   0.0808119  -0.4898296
  -1.0795732   0.0153998  -0.2845076   0.0000000   0.0000000   0.0000000
   0.0468835   0.1909643   0.1179998   0.3223489   0.2985525   0.1421341
   0.3667247  -0.0102890  -0.3162620   0.0000000   0.0000000   0.0000000
  -0.3964967   0.1972474   0.1732272   0.7171127  -0.1642492   1.6935443
   0.4938397  -0.5269164   1.3288101   0.0000000   0.0000000   0.0000000
  -0.0162358  -0.0593518  -0.1574720   0.2544401  -0.6224479  -1.0662354
   0.1229914   0.2280919   0.0189295   0.0000000   0.0000000   0.0000000
   0.0585362   0.1425872   0.0527772   0.7527686   0.0611834   0.3731670
  -0.4613883   0.1435042  -0.2366906   0.0000000   0.0000000   0.0000000
  -0.3190384   0.5008897  -0.0124885  -0.0578064   0.3514281  -0.5347081
   0.4861387   0.0141855  -0.8732571   0.0000000   0.0000000   0.0000000
   0.2561450  -0.2869738   0.3381688   0.1604283  -0.6226328   0.8505680
   0.7975016  -0.6699289   0.2661574   0.0000000   0.0000000   0.0000000
  -0.1265726   0.1195601   0.2615474   0.3456236   0.0231909  -0.1485309
   0.0152414   0.6716727   0.3842620   0.0000000   0.0000000   0.0000000
  -0.3261192   0.2983190  -0.0305812  -0.0617291  -0.7948513  -0.4219533
   0.1095382   1.6141928  -0.7114977   0.0000000   0.0000000   0.0000000
  -0.0497505  -0.2579796  -0.1024055   1.0050896  -0.2199591   0.4874500
  -0.9606193  -0.6656642  -0.6326295   0.0000000   0.0000000   0.0000000
  -0.2534303   0.2490804   0.1793742  -0.5841780  -0.3999148  -0.7799969
   0.8826390  -0.4256675   0.4338716   0.0000000   0.0000000   0.0000000
   0.0113118  -0.1454620   0.1996915   0.4622686  -0.7614001   1.0301239
  -0.3411302   0.2909115  -0.7659666   0.0000000   0.0000000   0.0000000
   0.2237817   0.3042161   0.1330962   0.5953694  -0.0842117   0.1328772
  -0.1989445   0.0671091   0.1174717   0.0000000   0.0000000   0.0000000
   0.0609752  -0.1044291  -0.0979989  -0.2094574  -0.1479622  -0.4863031
   0.4711507  -0.0004665  -0.2942861   0.0000000   0.0000000   0.0000000
  -0.0132968   0.1270229  -0.0014505   0.0311976   0.1971679   0.1673078
   0.1349510   0.2143159   0.4040894   0.0000000   0.0000000   0.0000000
   0.0577134  -0.1242318  -0.0467822   0.1641519  -0.2673917  -0.4315183
   0.0064189   0.3533549  -0.0083942   0.0000000   0.0000000   0.0000000
   0.2167329   0.1849350   0.0081754   0.6197382   0.3573114  -0.6504120
   0.0212219   0.1807193   0.3139861   0.0000000   0.0000000   0.0000000
  -0.0190444  -0.0223503   0.3895756  -0.7033711   0.7701837   1.0287753
   0.3580654  -0.3079987  -0.1351867   0.0000000   0.0000000   0.0000000
   0.1589679   0.1443242  -0.0891009   0.1042655   1.1755203   0.3610803
   1.1469767  -0.8380546   0.2494044   0.0000000   0.0000000   0.0000000
   0.3304175  -0.0786965   0.0430031  -0.0134915  -0.1258869  -0.2754421
   0.7490146  -0.5425758  -0.0090214   0.0000000   0.0000000   0.0000000
  -0.0086697   0.2825050  -0.0903114  -0.3608657   0.0347344  -0.0576724
  -1.1140302  -0.4205582   0.1491412   0.0000000   0.0000000   0.0000000
  -0.2825745   0.5251623   0.1283586  -0.0333397   0.4837758   0.0041181
  -0.3994754   0.7101008   0.1248849   0.0000000   0.0000000   0.0000000
  -0.1285270   0.0905529  -0.3891498  -0.4155423  -0.0840309  -0.7613160
  -0.8312224  -0.4410823  -0.1095838   0.0000000   0.0000000   0.0000000
   0.0668605   0.1409792  -0.0174693  -0.3421454   0.1267516  -0.6625730
  -0.0910352   1.2544338  -0.5936316   0.0000000   0.0000000   0.0000000
  -0.1391104   0.2275459   0.3305687   0.0361256  -0.0016443   0.5933707
   0.5830380   1.1262317  -0.1885658   0.0000000   0.0000000   0.0000000
  -0.1420296  -0.0050990  -0.0160158   0.1049339  -0.4575428  -0.0366268
   0.3622730   0.0750165   0.2498883   0.0000000   0.0000000   0.0000000
  -0.0988404   0.2972471  -0.0823880  -0.3563729   0.6558795   0.2141801
   0.0929024   0.3695812  -0.3918736   0.0000000   0.0000000   0.0000000
  -0.0376127  -0.0319364  -0.2200203   0.6234356  -0.3573216  -0.0557612
   0.8248122  -0.7804729   0.1898052   0.0000000   0.0000000   0.0000000
   0.0028428  -0.1624533  -0.3425711   0.2296757  -0.6652528  -0.8621213
  -0.4451623   0.1113701  -0.5546624   0.0000000   0.0000000   0.0000000
  -0.0418523   0.2595929   0.0390704  -0.0072299  -0.9636328  -0.2270050
  -0.2587566   1.8308911   1.4510184   0.0000000   0.0000000   0.0000000
   0.0735722   0.0660509  -0.0024417  -0.8808546  -0.0761625   0.1185383
   0.0921559   0.6112887  -0.8868428   0.0000000   0.0000000   0.0000000
  -0.1910162   0.1926421   0.2544185  -0.3846095  -0.3812131  -0.1350266
  -0.3404851   0.5781666  -0.3841656   0.0000000   0.0000000   0.0000000
  -0.0621837   0.0463800   0.1232908   0.1093894   0.3909209   0.7807283
  -0.8891576  -0.1980039   0.1607755   0.0000000   0.0000000   0.0000000
  -0.0978068  -0.0004037   0.0636764   0.0685950   0.2681723   0.0876141
  -0.5123451   0.2342903   0.0113610   0.0000000   0.0000000   0.0000000
   0.0856028   0.0792431   0.1655472  -0.4265041   0.9602755   0.2574069
   0.5184805  -0.1803203  -0.0358929   0.0000000   0.0000000   0.0000000
   0.2606872  -0.1204305   0.1624660   0.3057003  -0.5137831  -0.3631032
   0.5565770  -0.7975568  -1.0127221   0.0000000   0.0000000   0.0000000
   0.2464166   0.0798702  -0.1900244  -0.9365423   0.1393000   0.5677791
   0.6482942   1.1331271  -0.2390340   0.0000000   0.0000000   0.0000000
   0.0353037  -0.0791761   0.3179240   0.8947135  -0.0144250   0.1607596
  -0.2987325  -0.4087455  -0.5033481   0.0000000   0.0000000   0.0000000
   0.3554391  -0.0000389  -0.0556769   0.5972387  -0.1247660   0.0321980
   0.7204127  -0.0630231   0.1398477   0.0000000   0.0000000   0.0000000
  -0.0809982   0.1217743  -0.2529783   0.0691871  -0.4135504   0.0777836
   0.0642592   0.2979805  -0.1221591   0.0000000   0.0000000   0.0000000
   0.1331681   0.0785923   0.2580910   0.7606154   0.4737182   0.3433831
  -0.4399982  -0.2541614   0.0408518   0.0000000   0.0000000   0.0000000
  -0.2430643  -0.2705426   0.1706472  -1.0124097   0.5371839   0.5082917
  -0.0916528  -0.4233008   0.5674867   0.0000000   0.0000000   0.0000000
   0.3751805   0.1883629   0.0721906   0.1272033  -0.3285155  -0.4425561
  -0.2109429  -0.9452825  -0.0885399   0.0000000   0.0000000   0.0000000
  -0.1620051   0.1786391   0.1200593  -0.2364758   0.4971024  -0.0045448
  -0.1013777  -0.1379645   0.2935123   0.0000000   0.0000000   0.0000000
  -0.1187582  -0.3475829  -0.1752980   0.2565392   0.2570859   0.3243675
  -0.4971157  -0.3983277  -0.1815284   0.0000000   0.0000000   0.0000000
   0.0665709  -0.2514265   0.0877090  -0.3664029  -0.0436185  -0.0821519
  -0.4742943  -0.0963385   0.0013332   0.0000000   0.0000000   0.0000000
   0.0198582   0.0782301   0.0749619   0.3224840   0.3046998   0.5529316
  -0.4556361   0.7296668   0.3920051   0.0000000   0.0000000   0.0000000
  -0.2619197   0.0148866   0.1930466  -0.0326009   0.3478314  -0.0067986
  -0.1361469   0.6898076  -0.3716279   0.0000000   0.0000000   0.0000000
  -0.0706398   0.2756229  -0.1177158   0.0898997  -0.3970946  -0.3747974
   0.1279644  -0.0746561  -1.5459199   0.0000000   0.0000000   0.0000000
   0.0765729  -0.2422144   0.2876207  -0.2447980  -0.7383141  -0.7638392
  -0.1481520   0.1397437   0.5903627   0.0000000   0.0000000   0.0000000
  -0.2928340  -0.1108303   0.3009168  -0.2697555  -0.0097403   0.3981491
   0.7074151   0.3008288  -0.1223851   0.0000000   0.0000000   0.0000000
   0.2782404  -0.2912735   0.0735540  -0.1463277  -0.0861518  -0.0190174
   0.5787780  -0.4124075  -0.5469533   0.0000000   0.0000000   0.0000000
  -0.2176535  -0.2306176  -0.0743674  -0.3200819  -1.3429103  -0.2838911
  -0.3131360  -0.7992784   0.0441795   0.0000000   0.0000000   0.0000000
   0.1147963  -0.3491174  -0.1665470  -1.3688946   0.3314786  -0.9716787
   0.2781104   0.0805941   0.0393310   0.0000000   0.0000000   0.0000000
  -0.0972718  -0.0248624  -0.2946134   0.3383946  -0.2730486  -0.3897036
  -0.2940037   0.1462989  -0.7792809   0.0000000   0.0000000   0.0000000
  -0.3378990  -0.1720144  -0.1115190  -0.4383522  -0.0023228   0.6075618
   0.3851484  -0.2228004  -0.2494300   0.0000000   0.0000000   0.0000000
  -0.2181228   0.0985197   0.1901386   0.7565788  -0.0519223  -0.3807972
  -0.7614684   0.5035284   0.2351965   0.0000000   0.0000000   0.0000000
   0.0584178   0.0271148  -0.1212446  -0.3837904  -0.1598982  -0.0949869
  -0.2580476   0.3162820  -0.0345015   0.0000000   0.0000000   0.0000000
  -0.1976688   0.4239648   0.0579252  -0.0829357  -0.3076251  -0.6180149
  -1.8256828   0.9774549   0.7205566   0.0000000   0.0000000   0.0000000
   0.2916439   0.3579872   0.1652400   0.8504125   0.1464207   0.3209585
  -0.1925043  -0.0568600  -0.3863093   0.0000000   0.0000000   0.0000000
  -0.0414009   0.0111228  -0.1054728   0.1561033  -0.7468335  -0.4671567
  -0.5605991  -0.1628275   0.4679966   0.0000000   0.0000000   0.0000000
   0.0250904   0.1611540   0.0703318   0.6701499   0.3122599   0.0780612
   0.4454717  -0.7283187  -0.7564066   0.0000000   0.0000000   0.0000000
  -0.0431542   0.0102494   0.2247661   0.1558146   0.4187106  -0.1455201
  -0.5225405   0.2427746   0.4432879   0.0000000   0.0000000   0.0000000
  -0.0461115   0.0452652  -0.1639964   0.7037231   0.2665650  -0.4518110
  -0.2847773   0.6276163  -0.1500976   0.0000000   0.0000000   0.0000000
  -0.1310112   0.2261299   0.2484698  -0.5837419   0.0559314   0.6804080
   0.1040367   0.2659163   0.3407343   0.0000000   0.0000000   0.0000000
  -0.0578164  -0.1904969  -0.0225692  -1.3897929  -0.6192891  -0.0218066
  -0.3214945  -0.5722663  -1.5055097   0.0000000   0.0000000   0.0000000
   0.0824456   0.1423419  -0.0090400   0.1776292   0.9905809  -0.2856901
  -0.1236639   0.6078083  -0.7187280   0.0000000   0.0000000   0.0000000
  -0.1094446  -0.2712044   0.2873408  -0.8831306  -0.7201092  -0.1673202
   0.4112724  -0.0829156  -0.5802268   0.0000000   0.0000000   0.0000000
  -0.0612498   0.0906324   0.3199618  -0.2770704   0.7199513   0.0494270
   0.0969816  -0.1709691   0.4752765   0.0000000   0.0000000   0.0000000
  -0.0515016  -0.1620049  -0.0430791  -0.3218945  -0.4873757  -0.5836104
  -0.3642669   0.4404999   0.0379887   0.0000000   0.0000000   0.0000000
   0.2315264   0.0447619  -0.0616749  -0.6271647  -0.3600655   0.7255838
   0.3535230  -0.6374644  -0.6424097   0.0000000   0.0000000   0.0000000
   0.2855508  -0.0188279  -0.1580973   0.0272542   0.6207757   0.1838465
   0.6427530  -0.9973746  -0.7042658   0.0000000   0.0000000   0.0000000
   0.1279310   0.1627646   0.0473880  -0.2954704   1.4668381   0.2352516
  -0.2045515  -1.9323887  -0.3107634   0.0000000   0.0000000   0.0000000
  -0.0301257  -0.0079599  -0.0739262  -0.0242056   0.1450657  -0.3994418
  -0.3589603   0.2219734   0.4663949   0.0000000   0.0000000   0.0000000
   0.0675178   0.0067707  -0.0304211  -0.4945142  -0.7918920   0.0757156
  -0.7725182  -1.5141939  -0.0120393   0.0000000   0.0000000   0.0000000
   0.1663025  -0.2108275   0.2459300   0.2342622  -0.7581984   0.4337593
  -1.3322208  -0.8982115  -2.1240548   0.0000000   0.0000000   0.0000000
   0.0079381   0.0625306  -0.1253581   0.1923719   0.4774604  -0.2847079
   0.0532262   0.4584137  -0.2481812   0.0000000   0.0000000   0.0000000
   0.1077285  -0.0706748  -0.2688404  -0.0960075   0.3784226   0.3875117
   0.1504038  -0.2191266  -0.3894724   0.0000000   0.0000000   0.0000000
   0.2260114  -0.1560039  -0.0453892   0.3325428   0.1785775  -0.0233682
  -0.0341392  -0.4705794  -0.4541267   0.0000000   0.0000000   0.0000000
   0.1997975  -0.0776131   0.3794503   0.4697345  -0.0360019   0.4251901
   0.6888399   0.0615999  -0.6969975   0.0000000   0.0000000   0.0000000
   0.0826486  -0.0412409   0.2554373  -1.0990051  -0.4007850   0.8517515
   0.5733519   0.9625994   0.2613256   0.0000000   0.0000000   0.0000000
  -0.0057705   0.1795646   0.4046266  -0.0673176  -0.1981319   0.6955213
  -0.1693562   1.1681019  -0.8687606   0.0000000   0.0000000   0.0000000
   0.1226977  -0.1495260   0.2002272   0.4266947   0.7930088  -0.0145761
  -0.3678436  -1.4232237   0.5452355   0.0000000   0.0000000   0.0000000
  -0.1200590   0.1066794   0.0182368  -0.1420091   0.4820191   0.1438199
  -0.2631640  -0.5782092  -0.3026688   0.0000000   0.0000000   0.0000000
   0.3379895   0.0449911   0.0836193   0.3498245  -0.0130727   0.7502547
   1.1130996   0.0626744   0.0265833   0.0000000   0.0000000   0.0000000
  -0.2523690   0.2101228  -0.0552069  -0.3057967   1.3870955   0.0970936
  -0.1985361   0.1889312  -0.0266556   0.0000000   0.0000000   0.0000000
   0.2095602  -0.0542814  -0.0600645   0.1758882  -0.6049823  -0.6737344
   0.1315642   1.1227141  -0.4760334   0.0000000   0.0000000   0.0000000
   0.1493321   0.1857461  -0.1349965   0.0488368   0.8593707   0.4602322
   1.0973560   0.2231475  -0.3196876   0.0000000   0.0000000   0.0000000
   0.0186414   0.1898389   0.1845454   0.4086810   0.2754301  -0.0171987
   0.2302740   0.1297325  -0.1261174   0.0000000   0.0000000   0.0000000
   0.1113776  -0.1217521  -0.0922805  -1.2863741   0.8078723  -0.0673798
  -0.0633969  -1.2767830  -0.0040048   0.0000000   0.0000000   0.0000000
   0.3261249  -0.2463574   0.2250831   0.3446508   0.1993289   0.5638581
  -0.0648911   0.2215864   0.5058987   0.0000000   0.0000000   0.0000000
   0.0368525   0.2261171  -0.1502274   0.7939180   0.0157855  -0.5571876
  -0.4654142   0.8661270   1.1588867   0.0000000   0.0000000   0.0000000
   0.0713742  -0.1236048   0.0023600   0.4592745  -0.0077651  -0.0161763
  -0.1583405   0.1799342  -0.4234078   0.0000000   0.0000000   0.0000000
  -0.0101899  -0.0973721  -0.1637362   1.1357188  -0.5218207  -0.6663218
   0.3215334   0.5014879   0.6785732   0.0000000   0.0000000   0.0000000
   0.1709630  -0.0258870  -0.0274210  -0.3374197  -0.3672168   0.2528993
   0.0815810  -0.2422621   0.6268635   0.0000000   0.0000000   0.0000000
   0.2240801   0.5014680   0.2633065   0.0543878   0.2962922  -0.6704748
  -0.7034505   1.0125705   0.6301168   0.0000000   0.0000000   0.0000000
   0.3857266   0.0231445   0.2991034   0.6051904   0.2370793  -0.2931298
   0.4669040  -0.0072735   0.3173185   0.0000000   0.0000000   0.0000000
   0.1890497   0.1045875   0.0589136   0.0669406   1.6146798  -1.2292452
  -0.0811175   0.6799409  -0.3386692   0.0000000   0.0000000   0.0000000
   0.0619236  -0.1866434   0.0520961  -0.4743247   0.7634430   0.6285986
  -0.7155117  -1.1775942   0.5638737   0.0000000   0.0000000   0.0000000
  -0.0446541   0.1714866  -0.0426652   0.0125855  -0.5882590   0.2838773
  -0.0125833  -0.3990414  -0.0057623   0.0000000   0.0000000   0.0000000
   0.0102241   0.2212891  -0.3710290  -1.6096672   0.1252500   0.4795989
   0.1128578   0.5809147   0.1797166   0.0000000   0.0000000   0.0000000
   0.1642120   0.0988161  -0.2111043   0.1697339  -0.1002219  -0.3342047
  -0.1286317   0.0812139  -0.3314010   0.0000000   0.0000000   0.0000000
  -0.0136035   0.2898809  -0.1481457  -0.5155500  -0.2286039   0.5064708
   0.5269060  -0.4482834   0.0669475   0.0000000   0.0000000   0.0000000
  -0.2970219   0.0032342  -0.1397394   1.1041647  -1.5664769  -0.6093636
   0.7961298  -0.3167255   0.0164150   0.0000000   0.0000000   0.0000000
  -0.0022119   0.1815787   0.1201163  -0.1111999   0.0648852   0.3309574
   0.2389818   0.2200872   0.2420091   0.0000000   0.0000000   0.0000000
  -0.3462071   0.1471089  -0.1774091   0.3062136  -0.4386424  -1.3407121
  -0.3964415   1.9104606  -0.5230993   0.0000000   0.0000000   0.0000000
  -0.1725429   0.0496025  -0.1156510  -0.9719162   0.2769119   0.4367616
   0.5343995  -0.6496456  -0.1668619   0.0000000   0.0000000   0.0000000
   0.1456111   0.0110661  -0.4092927   1.1709394   0.4703436  -0.3898567
  -0.3104748   0.1724915   0.4014849   0.0000000   0.0000000   0.0000000
  -0.0873828  -0.0293955   0.2340522  -0.2642831  -0.2047745   0.0264387
  -0.3127578  -0.0350160  -0.1073899   0.0000000   0.0000000   0.0000000
  -0.3437664  -0.1980796  -0.0338341  -0.1833164  -0.0416483  -0.3254130
   0.7608617  -0.2049288   0.0345287   0.0000000   0.0000000   0.0000000
   0.2123358   0.2968613  -0.1179528  -0.2189484   0.6583056  -0.4184458
  -0.6034074   0.1196975   0.1365529   0.0000000   0.0000000   0.0000000
  -0.2269340  -0.2045290  -0.1631854  -0.3464136  -0.3081340  -0.5093915
   0.5120067  -0.4946629  -0.5439576   0.0000000   0.0000000   0.0000000
   0.1083985  -0.1208396   0.2396415   0.8939418  -0.6286782  -0.3989565
   1.3538603  -0.9919556  -0.8648182   0.0000000   0.0000000   0.0000000
  -0.2096932   0.1668222  -0.0095422  -0.2592988   0.2333413  -0.1425946
  -0.2494163   0.0400662   0.1111570   0.0000000   0.0000000   0.0000000
   0.1403007   0.0457127  -0.1852581   1.0220494   0.1116376   0.2733387
  -0.1537585  -0.7440188   0.2049793   0.0000000   0.0000000   0.0000000
   0.0912013   0.3892133   0.1136792  -0.4315895   0.7894204   0.3133418
  -0.0439742  -0.2511025  -0.4858374   0.0000000   0.0000000   0.0000000
   0.0643965  -0.1883825  -0.1761556  -0.3380219  -0.1653098   0.1444246
   1.4603366  -0.4580822  -0.8334781   0.0000000   0.0000000   0.0000000
  -0.2570686   0.1422551  -0.0790303  -0.4929914  -0.4655237   0.2115281
  -1.4743576  -0.5105333  -0.2694964   0.0000000   0.0000000   0.0000000
  -0.1037202   0.0463162   0.0281418  -1.3836987  -0.0221096   0.2247737
   1.1458749  -0.7996370  -0.2927308   0.0000000   0.0000000   0.0000000
   0.0502645  -0.1660229  -0.0246352   0.2643933  -0.5372572  -0.2699308
   0.0607497   0.1165109   0.4907991   0.0000000   0.0000000   0.0000000
   0.0704419   0.0837163   0.1829133  -0.3172836  -0.3188390   0.7001421
  -0.4500222   0.2323284   0.1182922   0.0000000   0.0000000   0.0000000
   0.4279824  -0.2653604  -0.1306627   0.5841804   0.0137215   1.2394502
   1.0948344   0.4234686  -1.2461626   0.0000000   0.0000000   0.0000000
   0.1396374   0.0192582  -0.0551862  -0.5318072  -0.3786260   0.3905721
  -0.0864837  -0.3375759  -0.1312846   0.0000000   0.0000000   0.0000000
   0.0549808  -0.0749219  -0.0857120   0.4805919   0.9242234   0.4082281
   0.3180517  -0.7749260   0.0947310   0.0000000   0.0000000   0.0000000
   0.3001294  -0.2743425   0.2182357  -0.3893895  -0.8711652   0.8752805
   0.5799372  -0.0915597  -0.3098361   0.0000000   0.0000000   0.0000000
  -0.0962905  -0.0969388   0.0715929   0.1512978   0.6005178  -0.3323553
   0.0614562   0.1531774   1.7715860   0.0000000   0.0000000   0.0000000
   0.2577266  -0.0821450   0.1654515   0.0474993   0.1599951  -0.1769621
  -0.1031096  -0.4404482  -0.6557226   0.0000000   0.0000000   0.0000000
   0.3840702  -0.2549444   0.0694365   0.6110834   0.4415846   0.6378509
   0.0000335  -0.9482474   0.0904883   0.0000000   0.0000000   0.0000000
   0.0313584  -0.0714489  -0.1701315   0.2011529   0.2644571   0.4220415
   0.6431101   0.2465684  -0.3096399   0.0000000   0.0000000   0.0000000
   0.1560970  -0.0317935  -0.1549870  -0.0714034   0.0344220   0.7795471
  -0.6530752  -0.2143913  -0.6719434   0.0000000   0.0000000   0.0000000
   0.0318305   0.0122870  -0.0125766  -0.6928154  -1.3071834   0.6140742
   0.0043552  -1.2262901  -0.5049177   0.0000000   0.0000000   0.0000000
  -0.0079489  -0.0197248   0.0503702   0.6472360  -0.3674063   0.0026056
  -0.7126492   0.3809438   0.7616659   0.0000000   0.0000000   0.0000000
   0.2334497   0.2680941   0.0230895   0.1884191   0.3425052  -0.0016311
   0.1532961   0.7457573  -0.0322483   0.0000000   0.0000000   0.0000000
   0.1315281  -0.0346860   0.0266793  -0.3555085   0.3455395  -1.0648781
  -0.0746941  -0.1550902  -0.1950034   0.0000000   0.0000000   0.0000000
   0.0958130   0.1359603  -0.4836322   0.0812043  -0.3453126  -0.7871613
   0.5128587  -0.0494049  -0.7685117   0.0000000   0.0000000   0.0000000
   0.0201444  -0.2320595  -0.2117321  -0.6358155   0.0475125  -0.3476560
   0.3102217  -0.9394726  -0.1278049   0.0000000   0.0000000   0.0000000
   0.2197636  -0.0835135  -0.1296417  -0.4564280  -0.3226180   0.4867086
   0.4832865  -0.0326376  -0.2419443   0.0000000   0.0000000   0.0000000
   0.1470985  -0.4080614  -0.4672852  -0.1368470  -0.0733729  -0.6596164
   0.0148389  -1.4145753   0.0582725   0.0000000   0.0000000   0.0000000
  -0.0019185  -0.5517108  -0.0785366  -1.7574103  -0.1585265   0.7688072
  -0.1632694  -0.2249688  -0.4122319   0.0000000   0.0000000   0.0000000
  -0.0925254  -0.2218443  -0.2347649  -0.5656398  -0.1992240  -0.6716778
   0.1206223  -0.3768916   0.3667118   0.0000000   0.0000000   0.0000000
   0.0746585  -0.1529038   0.0390904   0.8706847  -0.4203133   0.6861818
  -0.6046118  -1.1950476   0.1478681   0.0000000   0.0000000   0.0000000
   0.1618669   0.2318150   0.1846217  -0.0048121   0.2290390   0.0185379
  -0.0274029  -0.0542267   0.5483205   0.0000000   0.0000000   0.0000000
   0.1693924   0.3199063   0.2220406   0.2230952   0.3517602   1.1208866
   0.6186273  -0.7915973   0.1947435   0.0000000   0.0000000   0.0000000
  -0.2026284  -0.1114649  -0.0180283  -0.7517385   0.1755940  -1.0132342
   0.1386013  -0.4327174   0.4421489   0.0000000   0.0000000   0.0000000
   0.0479155  -0.1511911   0.3903394  -0.0456710  -0.8917268   1.7379625
   0.9276726  -0.6686257  -0.5582670   0.0000000   0.0000000   0.0000000
  -0.0945739  -0.1989057   0.0603898   0.6900191   0.1556925   0.4153158
  -0.4126358   0.2270381   0.6632169   0.0000000   0.0000000   0.0000000
   0.0423741  -0.0826302  -0.2600398  -0.5361195  -0.4472404  -0.0936176
   0.9224040  -0.5060399  -0.0624891   0.0000000   0.0000000   0.0000000
   0.0041584   0.3073230   0.0109951   0.2871812  -0.0747180   1.0949024
   0.8708291   0.5057251   0.7070041   0.0000000   0.0000000   0.0000000
  -0.0215187  -0.4099966  -0.0415526  -0.9715045  -0.6729034   0.3030184
   0.4745695  -0.0565546  -0.4717944   0.0000000   0.0000000   0.0000000
  -0.1547402  -0.0481487   0.1543041  -0.8507806   0.4204714   0.0584422
   0.1977868   0.5167876   0.5030903   0.0000000   0.0000000   0.0000000
   0.1741119  -0.2330285  -0.1958422   0.2222649  -0.1342980  -0.0755111
   0.3444481  -0.1696228  -0.3988181   0.0000000   0.0000000   0.0000000
  -0.2211901   0.1051528   0.2602574  -0.0911967  -0.0084279   0.0090982
   0.0141729  -0.0894819  -0.4472730   0.0000000   0.0000000   0.0000000
  -0.1834593   0.2851444   0.2301510   0.4490222   0.2049573  -0.7971499
   0.2220698  -0.0462161  -0.3917005   0.0000000   0.0000000   0.0000000
  -0.0032949  -0.0026025  -0.2149378  -0.3976592  -0.4939129   0.0908746
   0.4601031  -0.2602797  -0.1187798   0.0000000   0.0000000   0.0000000
   0.3699924  -0.1755040   0.0214417   0.0887808   0.3591490  -0.1031284
   0.7108696  -0.1380664  -0.4389130   0.0000000   0.0000000   0.0000000
   0.0926861  -0.0636973  -0.0803804  -0.4940674  -0.2167002  -0.9671968
  -0.3973402   0.6629220   0.3815367   0.0000000   0.0000000   0.0000000
   0.1201474  -0.0321778   0.0698041  -0.6811291   0.8096728  -0.3355209
   0.4308134  -0.7059461  -0.5487181   0.0000000   0.0000000   0.0000000
   0.2701027  -0.1247602  -0.1099537   0.0543418   0.4630252  -0.2656231
   0.6725924  -0.4808812   0.2306454   0.0000000   0.0000000   0.0000000
   0.5319320   0.1958692  -0.2565413   0.0168531  -0.6009737  -0.5724260
   0.7028566   0.4664723  -0.0692963   0.0000000   0.0000000   0.0000000
   0.0201593  -0.0656646   0.1938373   0.0060100  -0.9310390   0.3775526
  -0.0513430   1.0408440   0.0131563   0.0000000   0.0000000   0.0000000
   0.0384445   0.0197998   0.0571339   0.3243225   0.1107728   0.3083997
  -0.0528034  -0.9164299   0.3994167   0.0000000   0.0000000   0.0000000
   0.0248523   0.1725762   0.0986600   0.0557613  -0.2318921   0.1358167
   0.6915754   0.2486181  -0.2559410   0.0000000   0.0000000   0.0000000
  -0.0118431  -0.1334275   0.0381739   0.0928439   1.3709963   0.2793351
   0.0431413   0.3988460   0.0289623   0.0000000   0.0000000   0.0000000
  -0.3941946   0.0067924  -0.2506843   0.9217915   0.3344116   1.2865342
   0.8222521   0.2030724   0.4146165   0.0000000   0.0000000   0.0000000
   0.1420420  -0.1817390   0.0247250  -0.2638915   1.3168135   0.2496519
   0.8748941   0.2775504   0.0051725   0.0000000   0.0000000   0.0000000
  -0.1713903  -0.3456357  -0.1126886  -0.6420476   0.5673849   0.9371583
  -0.3834944  -0.1876478   0.0190021   0.0000000   0.0000000   0.0000000
  -0.1577398   0.0078523  -0.0881443   0.1160103  -0.6008933  -0.1112344
  -0.1611829  -0.3909305  -0.2595174   0.0000000   0.0000000   0.0000000
   0.0327528   0.0752393   0.0941590  -0.3545519   0.2887161  -0.4678449
  -0.2287949   0.5149593  -0.0813139   0.0000000   0.0000000   0.0000000
   0.1210055  -0.2689075   0.0217468  -0.9031847  -0.0869704  -0.7798277
   0.1967112  -0.4970744   0.4853387   0.0000000   0.0000000   0.0000000
  -0.0612180   0.3691619  -0.1388962   0.9487925  -0.9903013  -0.0989477
  -0.8527428  -0.8868492  -0.0665885   0.0000000   0.0000000   0.0000000
   0.0140451  -0.1012264  -0.1682443   0.7933403  -0.6128552  -0.6557276
   0.4578340  -0.5708303  -1.1979429   0.0000000   0.0000000   0.0000000
   0.1428843  -0.3097233   0.1205837   1.0416112   0.1369818  -0.2032164
   0.0212587  -0.0557152   0.4296024   0.0000000   0.0000000   0.0000000
   0.0400901   0.0191051  -0.3620733   0.4601156  -0.3490025  -0.4265739
   0.2485061   1.3096988  -1.0388060   0.0000000   0.0000000   0.0000000
   0.3810021   0.1253398  -0.1287870  -0.1556855  -0.1196457  -0.3877030
   0.8542102   0.4220540  -0.0003055   0.0000000   0.0000000   0.0000000
  -0.0115737   0.1035552  -0.3327896  -0.6152165  -0.2568913  -0.4846747
  -1.1778843   1.2692990   0.7079594   0.0000000   0.0000000   0.0000000
   0.2924509  -0.0199663  -0.0090140  -0.2094368  -0.2574287  -0.1442414
   0.8464060  -0.3242276  -0.4463515   0.0000000   0.0000000   0.0000000
   0.1469667  -0.0815802   0.1322166   0.2680649  -0.0533050  -0.3078744
  -0.1775327  -0.2829354   0.0635772   0.0000000   0.0000000   0.0000000
  -0.3298585  -0.1720901   0.2236322   0.2671218   0.7325200  -0.5504953
   0.4333922   0.1403783   0.9430190   0.0000000   0.0000000   0.0000000
   0.0041370  -0.0432464  -0.0911541  -1.4250969   0.5918998   0.1447031
  -0.5930208  -0.5590409  -0.5600988   0.0000000   0.0000000   0.0000000
   0.1034978  -0.1316952   0.3165859  -0.7148714  -0.1426606  -0.2724867
  -0.1759372  -0.7425343   0.2816431   0.0000000   0.0000000   0.0000000
   0.1565181   0.2276811  -0.3234024   0.1119444   0.2139114  -1.7891636
   0.2567543   0.8303638  -0.8852643   0.0000000   0.0000000   0.0000000
  -0.0514472  -0.1180937  -0.2014117  -0.8022312  -1.3219223   0.8330814
  -0.5448899  -0.1812736  -0.1550259   0.0000000   0.0000000   0.0000000
  -0.2208966   0.0706490   0.2082508   0.1776522   0.2192310   0.1257430
   1.9982185   0.3122279   0.8206767   0.0000000   0.0000000   0.0000000
   0.0296886  -0.2235768  -0.2143851   0.3509253   0.0247202   0.3411425
  -0.0125062   0.6411150   0.1466756   0.0000000   0.0000000   0.0000000
   0.0481938  -0.0996816  -0.2755481  -0.5512311  -0.8010637  -0.3201615
   0.0486865  -0.3553048  -0.9648960   0.0000000   0.0000000   0.0000000
  -0.1208358  -0.2896232   0.2388241   0.4856069  -0.3101219   1.2905033
   0.1908725  -0.2330554   0.7757896   0.0000000   0.0000000   0.0000000
  -0.0242813   0.4422493   0.2109856  -0.1913792   0.2973425  -0.0474075
  -0.2801647   0.3682274  -0.1322685   0.0000000   0.0000000   0.0000000
  -0.0920436  -0.1258585   0.0911862   0.7482513  -0.5118552   1.1490436
   0.5622092   0.8002474   0.3427987   0.0000000   0.0000000   0.0000000
  -0.3805673  -0.2128481  -0.0159768   0.2689467  -0.0320875   0.1852085
   0.0310780  -0.2169352   0.1858475   0.0000000   0.0000000   0.0000000
  -0.0275066   0.2611419  -0.1919532  -0.0826644   0.0911096   0.2434440
  -0.5782350  -0.0380958  -0.0286065   0.0000000   0.0000000   0.0000000
   0.2466779   0.1422511  -0.1839300  -0.1232963   0.3827008  -0.5261729
   0.0624665   0.3180503  -0.2710089   0.0000000   0.0000000   0.0000000
   0.1666614  -0.3230690   0.0785220   0.3147498   0.5534665  -0.3360096
   0.0705389  -0.5912678   0.0322565   0.0000000   0.0000000   0.0000000
  -0.0130410   0.1458855  -0.0318026  -1.2345658  -0.1086125   0.1939034
   0.6767659   0.2529092  -0.1386171   0.0000000   0.0000000   0.0000000
   0.1218898  -0.0869533  -0.1352127   0.7047383   0.2172595  -1.0930547
  -1.0225134   0.2007019  -0.0723785   0.0000000   0.0000000   0.0000000
   0.2516337   0.1520654   0.1893474   1.1859790   1.3598090  -0.2059500
   0.9901501  -0.6962531   0.6993094   0.0000000   0.0000000   0.0000000
   0.0326692  -0.3284957  -0.3041672   0.0481158  -0.4644050   0.3515119
   1.0498000   0.2043888   0.7818329   0.0000000   0.0000000   0.0000000
   0.3852722  -0.3857233   0.5177140   0.0184438  -0.0108823  -0.6472120
  -0.0494693   0.1704223   0.0941876   0.0000000   0.0000000   0.0000000
   0.0821771   0.0595342  -0.2026486   0.0781697  -0.1710510   0.2335594
   0.0017735   0.8944617  -0.0560583   0.0000000   0.0000000   0.0000000
   0.1001888   0.0334577  -0.1948811  -0.0267885  -0.0051724   0.2341643
   0.0439172   0.0874152   0.0847186   0.0000000   0.0000000   0.0000000
   0.1176706  -0.0614924  -0.0782333  -0.4239274   0.1400692  -0.3553631
   0.2077249  -0.6724181  -0.2704036   0.0000000   0.0000000   0.0000000
   0.2552371  -0.0487175   0.1370241  -1.1129510  -0.7163309  -0.2947636
   0.3548163   0.0400415   0.2059647   0.0000000   0.0000000   0.0000000
  -0.0419800   0.0399422   0.0853091   0.6765032  -0.1167269  -0.4497330
   0.0009778   0.3748717   0.4061628   0.0000000   0.0000000   0.0000000
   0.2141477  -0.1950979   0.3708070   0.7620854  -1.2154455   0.0157617
   0.4000052  -0.4979378   0.8306949   0.0000000   0.0000000   0.0000000
   0.1133073   0.1091418  -0.0765371  -0.5903952   0.4437039  -0.0581384
  -0.1788271   0.4856254  -0.0636797   0.0000000   0.0000000   0.0000000
  -0.0501667   0.0644888  -0.2396257  -0.1681477  -0.5801427   0.1741874
  -0.0360778  -0.4268422  -0.4900498   0.0000000   0.0000000   0.0000000
  -0.1081125   0.0440210  -0.0764877  -0.6419507  -0.4449732   0.4022852
  -0.6815379  -0.9116506  -0.2032237   0.0000000   0.0000000   0.0000000
  -0.0365333   0.2141666  -0.0949154   0.4189933   1.1293864   0.0531738
   1.3754688  -0.1023436  -0.9979961   0.0000000   0.0000000   0.0000000
  -0.0142579   0.3184755   0.1964176  -1.3871121   1.7579980  -0.9393476
  -0.9599338  -0.0428518  -0.8995502   0.0000000   0.0000000   0.0000000
  -0.0545429  -0.2463839   0.1240228  -0.2836855  -0.4929768  -0.3624292
   0.0358744  -0.2345221   0.2673558   0.0000000   0.0000000   0.0000000
   0.0096639  -0.1105654  -0.0065259  -0.1753962  -0.1216974  -0.5477726
   0.4030605   0.2188152   0.2740189   0.0000000   0.0000000   0.0000000
   0.1083646  -0.1849756   0.1732153   0.3533824  -0.2419024   0.6490669
   0.4593271  -0.7529457   0.5304758   0.0000000   0.0000000   0.0000000
  -0.1234878  -0.1612266  -0.1724788   0.1813496   0.0105184   0.6978486
   0.1985897   0.3785560  -0.5515756   0.0000000   0.0000000   0.0000000
  -0.0149724  -0.2106911   0.0896048   0.3685977   0.1857292  -0.4447298
   0.3609420  -0.7015346   0.2689985   0.0000000   0.0000000   0.0000000
   0.0154230  -0.0687957  -0.0019991  -0.8688321   0.1294524   0.3508855
   0.6595654   0.5559557   0.4738527   0.0000000   0.0000000   0.0000000
   0.1833122  -0.2714782   0.0469367  -0.5989018  -0.5884742   0.6845204
   0.5242091  -0.6450147  -0.0170526   0.0000000   0.0000000   0.0000000
   0.1396624   0.2704015  -0.0177777   0.9052880  -0.9601789   0.7388907
   0.7106021  -1.4152122   0.8872617   0.0000000   0.0000000   0.0000000
   0.0819004   0.0590406   0.1489620   0.5706876   0.2510966   0.6015200
  -0.5691958   0.2518112   0.3745747   0.0000000   0.0000000   0.0000000
  -0.0102311  -0.0743111  -0.2123442   0.5941985  -0.1635218   0.6241454
   0.0186569   0.4029378  -0.1444602   0.0000000   0.0000000   0.0000000
  -0.0806107  -0.1354061  -0.2442775  -0.5946942   0.1666047   0.7304753
   0.2601390  -0.6928188   0.5582982   0.0000000   0.0000000   0.0000000
   0.1958256   0.0722164   0.0200421  -0.0673888  -0.8113923   0.0761508
   0.2548185   0.3125885   0.0104335   0.0000000   0.0000000   0.0000000
   0.1242230   0.1820720   0.0131794  -0.1222061  -0.0107296   1.2838548
  -0.5941083   1.3157442  -0.4048566   0.0000000   0.0000000   0.0000000
  -0.1533532  -0.0347214   0.2735604  -0.4365920  -0.7868414   0.2852665
  -0.6245300   0.2172465  -0.0345512   0.0000000   0.0000000   0.0000000
  -0.1645545  -0.0055522  -0.0338515  -0.2604550   0.2450374  -0.2481752
  -0.9944672   0.4476460  -0.8707860   0.0000000   0.0000000   0.0000000
   0.0520762  -0.0039124   0.0682198  -0.3048044   0.0262712   1.1562126
   0.0587453   0.7254098  -0.3948113   0.0000000   0.0000000   0.0000000
   0.0310835   0.1322880   0.2454788   0.5871265   0.1267167  -0.2321036
   0.2680905   0.3938550   0.2787410   0.0000000   0.0000000   0.0000000
   0.1529991   0.1436882   0.0542055   0.9541200   0.1042699   0.0994199
   0.6464656  -0.0190731   0.3913385   0.0000000   0.0000000   0.0000000
  -0.1721315  -0.1739994  -0.0174797  -0.3160655   0.6185696   0.7707836
  -0.0562041   0.6708407   0.7996948   0.0000000   0.0000000   0.0000000
   0.1517653   0.2320620   0.2186881   0.5355831  -0.2038787   0.7321857
  -0.6050152  -0.7783225  -0.4311606   0.0000000   0.0000000   0.0000000
   0.0571595  -0.0406267   0.3446176   0.1367529  -0.4729648   0.7661441
   0.1161271   0.0718293  -0.4372805   0.0000000   0.0000000   0.0000000
  -0.0332258  -0.0558649  -0.1410813  -1.0702632  -1.5354179   1.3633851
   0.2169411  -0.1602550  -0.2562532   0.0000000   0.0000000   0.0000000
   0.0478216   0.2286140  -0.4004268  -0.0801000   0.0433332   0.6713829
   0.3594596  -0.3841910   0.2804846   0.0000000   0.0000000   0.0000000
   0.2283932   0.1812942   0.1659966   1.3479474  -1.1445764   0.0539698
  -0.2773350   0.5694940  -1.1266003   0.0000000   0.0000000   0.0000000
  -0.3557953   0.1946639   0.1727923   0.1825818   0.5697984  -0.0287989
   0.3997891   0.2815482  -1.4395398   0.0000000   0.0000000   0.0000000
  -0.1068072   0.2008216   0.2769535  -0.3839005  -0.0228132   0.3683682
   0.3031444   0.1078122  -0.5664363   0.0000000   0.0000000   0.0000000
   0.1380822  -0.0068825  -0.1500584   0.0459464   0.1365017   0.2396139
   0.4273123   0.1609585  -0.2016674   0.0000000   0.0000000   0.0000000
   0.0560403   0.1024940  -0.3452668   0.5972342  -0.5718662   1.1455106
   0.3474390  -0.7043559  -0.6371835   0.0000000   0.0000000   0.0000000
  -0.1722120  -0.2458347   0.2054378   0.3243140  -0.0149480  -0.3480267
  -0.5652394  -0.0619829   0.5989718   0.0000000   0.0000000   0.0000000
   0.1672161  -0.0645061  -0.2557272   0.8839121  -0.4016738  -0.9400627
  -1.0265542   0.5415148   0.3221736   0.0000000   0.0000000   0.0000000
   0.0551381  -0.1419598   0.1525454  -0.0190663   0.1739202  -0.0964287
  -0.0542331   0.3780740  -0.2270105   0.0000000   0.0000000   0.0000000
  -0.0540960   0.0538228  -0.0789131  -1.0135121  -0.9203364  -0.4522935
   0.3594345  -0.0167315  -0.1961720   0.0000000   0.0000000   0.0000000
   0.0149468   0.1770936   0.0263108   0.3665960   0.1065089   0.1997348
  -0.2532345   0.2929356   0.3205727   0.0000000   0.0000000   0.0000000
  -0.0300192   0.0710097  -0.1732548  -0.0073485   0.5945195   0.2284028
   1.0250705   1.0628399  -0.1528995   0.0000000   0.0000000   0.0000000
   0.1809230   0.0430157   0.2157090  -0.1431736   0.3758162   0.2118234
   0.2530236  -0.5733142  -0.1270471   0.0000000   0.0000000   0.0000000
   0.3927298  -0.1721125   0.2450813   0.5328930  -0.5101655   0.9946716
   0.6352611  -0.8063170  -0.1254724   0.0000000   0.0000000   0.0000000
   0.1409688  -0.0162157   0.1722348   0.5286870   0.5630564  -0.3219504
  -0.3995955   0.4486774   0.7390710   0.0000000   0.0000000   0.0000000
   0.1261067   0.1190117   0.1967621  -0.0080888  -0.9994085  -0.3663551
  -0.2240018  -0.1243904   0.5956176   0.0000000   0.0000000   0.0000000
  -0.0661065   0.1800239  -0.0452580   0.3802115   0.9008195   0.1208389
  -0.5783786  -0.2323161   0.0922772   0.0000000   0.0000000   0.0000000
  -0.0543913  -0.1144051  -0.1161843  -0.1108940   0.0560381  -0.3502701
   0.6137255  -0.0748568  -0.5544515   0.0000000   0.0000000   0.0000000
  -0.0890726  -0.1448597  -0.0958979   1.4090507  -0.4470544   0.7693377
   0.9699526   0.6436661  -0.2357992   0.0000000   0.0000000   0.0000000
  -0.0778510   0.1191582  -0.1704262  -0.3515292   0.0084243  -0.4149748
   0.2652177  -0.4655018  -0.2026313   0.0000000   0.0000000   0.0000000
  -0.1816333   0.0244043  -0.1897743   0.4191532   0.2948466   0.8576941
   0.4817086   0.2557944  -0.5252518   0.0000000   0.0000000   0.0000000
   0.2819485  -0.0358168  -0.0983152  -0.2120995   0.6283427   0.6005402
  -0.5034748  -0.6083491  -1.2789361   0.0000000   0.0000000   0.0000000
  -0.0963399  -0.0303799   0.2939480  -0.1234506  -0.0323577   0.3930270
  -0.1053495  -0.0602074   0.2332793   0.0000000   0.0000000   0.0000000
  -0.1828765  -0.0025959  -0.1084175   0.6798136  -0.4697196  -0.4524420
   0.7208737   0.1134588  -0.5892340   0.0000000   0.0000000   0.0000000
  -0.2227379   0.3549695   0.1717679   0.3322189   0.4291456   1.0011435
  -0.8348059  -0.2572666   0.0573551   0.0000000   0.0000000   0.0000000
  -0.2530900  -0.0518626  -0.0257990   0.0057522  -0.0391834   0.1057286
  -0.2377696  -0.0805369  -0.3234332   0.0000000   0.0000000   0.0000000
  -0.2587252   0.1532669  -0.0437276  -0.5773781   1.3584276  -0.3314586
  -0.4454163   1.0349723  -0.3114249   0.0000000   0.0000000   0.0000000
   0.0938102   0.0669996   0.2524541   0.1721309  -0.1310471   0.3989357
  -0.1367577   0.0671351   0.3268017   0.0000000   0.0000000   0.0000000
  -0.0684670   0.2240620   0.1928377  -1.0210150  -0.0422417   0.0362768
   0.1533865  -0.1280871  -0.5788196   0.0000000   0.0000000   0.0000000
  -0.0832014  -0.4027222  -0.3340302   0.0816533   0.1253430  -0.2812544
   0.1447316  -0.5348165   0.1986765   0.0000000   0.0000000   0.0000000
   0.0966835  -0.1430423   0.0989383   0.5247502  -0.0129937   0.2034873
   0.0898386  -1.2084137  -0.5284611   0.0000000   0.0000000   0.0000000
   0.3024355  -0.1129901   0.3133379   0.9173149  -0.3775534   0.4708344
   1.3547076  -0.5624917   0.6309090   0.0000000   0.0000000   0.0000000
  -0.0598923   0.2152003  -0.3047757   0.1478097  -0.3231790  -0.5091855
   0.1483234   0.8837106   0.0314968   0.0000000   0.0000000   0.0000000
   0.1847221   0.0148340  -0.1597250  -0.3054065   0.0942572  -0.4855227
  -1.1596777   0.1299450   0.5235287   0.0000000   0.0000000   0.0000000
  -0.5001952  -0.3261837  -0.2225791  -0.8853525  -0.2228300   1.1290782
  -0.8478358  -0.3547545   0.4802439   0.0000000   0.0000000   0.0000000
  -0.1064190   0.0686129   0.1307125  -0.8894397  -0.1338812   0.0584112
  -0.4409877   0.1848273  -0.2377280   0.0000000   0.0000000   0.0000000
   0.2936714   0.1644134  -0.2637844   0.8964529   0.4223114  -1.5141778
   1.6965535   0.5893841  -1.4106106   0.0000000   0.0000000   0.0000000
   0.0685115  -0.0647652   0.5924479   0.6551715   0.4937069  -0.6870657
   0.4581051   0.1193144  -0.3480813   0.0000000   0.0000000   0.0000000
  -0.0015609   0.0718397   0.1820415  -0.1392729   1.2405885   0.0317721
  -0.4339449   1.6847435   0.2137844   0.0000000   0.0000000   0.0000000
  -0.2808116   0.0310018   0.1080004   0.1340860   0.1066192  -0.1992339
  -0.2027023  -0.1169670   0.4305041   0.0000000   0.0000000   0.0000000
  -0.0117237  -0.0074761   0.0021883  -0.0688978  -0.0413767   0.4012634
  -0.0962658  -0.0386130   1.3116816   0.0000000   0.0000000   0.0000000
   0.1322798  -0.0308071   0.2267350  -0.3857327   0.8514203  -0.2022237
  -0.4004457  -0.5878687  -0.3586947   0.0000000   0.0000000   0.0000000
   0.2404240  -0.0108606  -0.1353601  -0.1907769   0.1299230  -0.3519181
   0.4130089  -1.1800767   0.3632355   0.0000000   0.0000000   0.0000000
   0.1289230  -0.0026780   0.3379960   0.1208575  -0.5678885  -0.4167297
  -0.2641703   1.1092373  -0.2698725   0.0000000   0.0000000   0.0000000
  -0.1541780   0.1432805  -0.0164137  -0.4387562   0.1965735   0.0702572
  -1.0741161   0.6630514   0.6309340   0.0000000   0.0000000   0.0000000
   0.0578866  -0.1569147   0.1699551  -0.5118517   0.0834357  -0.0376708
   0.4434743  -0.0288322  -0.3489354   0.0000000   0.0000000   0.0000000
   0.0182177  -0.1265247   0.1931615  -0.0500578   0.5570607  -0.5019647
  -0.0539706  -0.0647657   0.2444098   0.0000000   0.0000000   0.0000000
   0.0964643   0.1774205   0.1979595   0.6014240  -0.7734428   0.3418630
  -0.2722973   0.7649363   0.0871859   0.0000000   0.0000000   0.0000000
  -0.4329037  -0.0773228   0.0158686   0.0981471   0.6780467   0.6329182
  -0.1227834  -0.1789174   0.4014685   0.0000000   0.0000000   0.0000000
  -0.0261584   0.1576953  -0.0264202   0.5048997  -0.6984255  -1.1875786
   0.7879523   0.2458239  -1.1481541   0.0000000   0.0000000   0.0000000
  -0.0440754  -0.1769355  -0.2805063   0.4301640   0.0640722   0.4946155
   0.0394438  -0.2352286  -0.7383745   0.0000000   0.0000000   0.0000000
  -0.2549649   0.1227182   0.1746907   0.5823501   0.6404988  -0.6599777
   0.0007167   0.6832031   0.1973808   0.0000000   0.0000000   0.0000000
   0.2813141   0.1408550   0.1545518   0.0172844   0.0604122   0.1745450
  -0.5403262  -0.0245937   0.2943669   0.0000000   0.0000000   0.0000000
  -0.1556241   0.3608059  -0.1302988  -0.0164614   0.6526760  -0.2450429
  -0.0570210   0.4463508  -0.1559575   0.0000000   0.0000000   0.0000000
  -0.0375380   0.0206568  -0.1918107  -0.0210281  -0.2860449   0.0479400
  -0.0560035   0.2119999   0.3713096   0.0000000   0.0000000   0.0000000
   0.4228293  -0.2354630   0.0406719  -0.3980756   0.5832574   0.0596998
  -0.0487437   0.3257489  -0.0326813   0.0000000   0.0000000   0.0000000
   0.3100539  -0.0691545  -0.1225926   0.2725360  -0.2698231   0.3641549
   0.3625106   0.1009774  -0.6205213   0.0000000   0.0000000   0.0000000
  -0.1430021  -0.3440412  -0.1012921   0.2754605   0.0498182   0.4736096
   0.7178485  -0.4828882   0.0138650   0.0000000   0.0000000   0.0000000
   0.1619000  -0.0683669  -0.0406361   0.0240385  -0.2701722   0.2873053
   0.1613451  -0.5753253   0.0057141   0.0000000   0.0000000   0.0000000
  -0.0779397  -0.0558004  -0.2724534   0.2450588  -0.2293226  -0.2805532
  -0.0552940  -0.0867507  -0.8830499   0.0000000   0.0000000   0.0000000
   0.1027606  -0.1804730  -0.2152670  -0.4757044  -0.6509766   0.4769337
   0.6477623   0.3824363  -1.1855947   0.0000000   0.0000000   0.0000000
   0.2923129   0.2604690   0.0410650   0.8255237   0.4748696  -0.5863098
   0.0735296  -0.2881166   0.1198365   0.0000000   0.0000000   0.0000000
   0.1080365  -0.0532355  -0.0152786  -0.2920887  -0.2347505  -0.3044113
  -0.0313366   0.5011909  -0.5079734   0.0000000   0.0000000   0.0000000
   0.0317074  -0.0331083   0.2170510  -0.4088402  -0.4030925   0.0918666
   0.3464757   0.3294171   0.4513735   0.0000000   0.0000000   0.0000000
  -0.1404751   0.2211816  -0.1433024   0.2213103   0.5197543   0.0795106
  -1.0954085   0.1041201  -0.3312713   0.0000000   0.0000000   0.0000000
   0.0736008  -0.0729751   0.0774661  -0.4156880   0.4951115  -0.0531237
  -0.0096747  -1.0049948   0.0398213   0.0000000   0.0000000   0.0000000
   0.2260307  -0.2369420   0.2277633   1.2357231  -0.2102403   0.5496566
   0.3352026  -0.1944887  -0.0417861   0.0000000   0.0000000   0.0000000
  -0.1310747   0.2441717  -0.1821303  -0.2025293  -0.4418090  -0.1758093
   1.1294857  -0.5650921   0.1173623   0.0000000   0.0000000   0.0000000
  -0.0637084  -0.1000394   0.4511084  -0.6953625   0.4127125  -0.1166000
  -0.8699283   0.3251503  -0.0398649   0.0000000   0.0000000   0.0000000
   0.0214012   0.0310074   0.0812306  -0.3467774  -0.9133077   0.3873551
  -0.4032260  -0.3570854   0.6980235   0.0000000   0.0000000   0.0000000
  -0.3829122   0.0972611  -0.1789863  -0.3001538  -0.2942646  -0.0064102
   0.0487416  -0.0781018   0.6332798   0.0000000   0.0000000   0.0000000
   0.0660137   0.0129466  -0.1010466   0.8857788  -0.2107691   0.2512898
   0.2063205   0.4005319   0.0753081   0.0000000   0.0000000   0.0000000
  -0.0597400   0.0117003   0.1860662  -1.5716543   0.2713277  -0.2452487
  -0.1441642  -0.3105794  -0.6441185   0.0000000   0.0000000   0.0000000
   0.0791826   0.2357550   0.0116274   0.6864867   0.5029195  -0.2723144
   0.1962903  -0.8314628   0.7374722   0.0000000   0.0000000   0.0000000
  -0.1798050   0.0759277  -0.1183173  -0.5840440  -0.1226996   0.1271476
   0.0114724  -0.0706540   0.0462032   0.0000000   0.0000000   0.0000000
  -0.2103211  -0.2158431   0.0060383  -0.2049303   0.5293979   0.2539019
  -0.3906284  -1.1345000   0.1335593   0.0000000   0.0000000   0.0000000
   0.0783473  -0.0675399  -0.0790081  -0.1342244  -0.0797245  -0.0407734
   0.0952993  -0.1925255  -0.4594590   0.0000000   0.0000000   0.0000000
   0.1221600   0.4421514  -0.1726844   1.0886857  -1.0655205   0.3470022
  -0.4015580   0.5068750  -0.0948440   0.0000000   0.0000000   0.0000000
   0.0279019   0.3230499   0.0816373   1.2452906  -0.5537154  -1.7887543
  -0.3984612  -0.9363734  -0.9724070   0.0000000   0.0000000   0.0000000
  -0.1103169  -0.3340277  -0.3514349  -0.0255224  -0.9138479   0.6880140
   0.0780629  -0.1921691  -1.3233705   0.0000000   0.0000000   0.0000000
   0.0344566  -0.0103176   0.1319835  -1.2121656  -0.2333683   0.5120076
   0.0639527  -0.0202319   0.1474587   0.0000000   0.0000000   0.0000000
  -0.0541095  -0.0498696   0.0983608   0.1805558  -0.2285255   1.0635409
   1.6115312   0.8621332  -0.0564729   0.0000000   0.0000000   0.0000000
  -0.3078850   0.1035913   0.0863487  -0.2706364   0.2853916   0.0294149
  -0.2100685   0.5950628   0.3991196   0.0000000   0.0000000   0.0000000
   0.0293285   0.2130500   0.0136121  -0.1866660  -0.0278499  -0.1148842
   0.0939402   0.4552975  -0.1827751   0.0000000   0.0000000   0.0000000
   0.0888112  -0.0316273   0.1774677   0.4550537   0.4793470  -0.1871691
  -0.0521977  -0.1776247   0.5341403   0.0000000   0.0000000   0.0000000
  -0.1671975   0.0806566  -0.1860201  -0.1031329   0.1800201   0.0024623
  -0.1411199   0.1292752  -0.1329563   0.0000000   0.0000000   0.0000000
  -0.2403413  -0.2486827   0.2434014   0.5109403   0.2340943   0.0977184
   1.1593560  -1.4844043   0.1477237   0.0000000   0.0000000   0.0000000
   0.1748539   0.2299863  -0.1627007   0.0971563  -0.1550753   0.0489683
  -0.2228268   0.6308951  -0.4499770   0.0000000   0.0000000   0.0000000
  -0.1408993  -0.2818072   0.0454974  -0.6668485   0.4593806   0.3253785
   0.5477441   0.1062532  -0.2820211   0.0000000   0.0000000   0.0000000
  -0.1308374   0.2800226   0.2701644  -1.0167357  -0.1336352   0.7845345
   0.6500956   0.8164907  -0.2912217   0.0000000   0.0000000   0.0000000
   0.1674212   0.1633819   0.0668860   0.0116547   0.5148508   0.0958302
  -0.2473580  -0.4422216   0.8262373   0.0000000   0.0000000   0.0000000
  -0.0205450  -0.2319840   0.1409567   0.6984026  -0.3621924   0.5913914
   0.6056453  -0.5776175   0.2876440   0.0000000   0.0000000   0.0000000
   0.1221622  -0.5351215  -0.5615668  -0.9916277   0.4449841   0.3253211
   0.2100376  -0.1665563  -0.9142508   0.0000000   0.0000000   0.0000000
  -0.2327662   0.0377486  -0.0716855  -0.0964348  -0.6393172   0.5327761
  -0.0863362  -0.4319194   0.2975200   0.0000000   0.0000000   0.0000000
  -0.1367981   0.1793447  -0.0101354   0.4306723  -0.7272781  -0.5151725
   0.2605354  -0.4390081  -0.2103645   0.0000000   0.0000000   0.0000000
   0.2067053  -0.1071293  -0.3206719   0.5079238  -0.3815923  -0.3125954
   0.0135908   0.0270332   0.2821062   0.0000000   0.0000000   0.0000000
   0.1495987  -0.1522669   0.1052448   0.5535819  -1.2543854   0.4569778
  -0.1971243  -0.2714535   0.2545008   0.0000000   0.0000000   0.0000000
   0.2705849   0.3173490  -0.0362063   0.3763138  -0.2067030  -0.1682654
   0.6924215  -0.4274212   0.6938681   0.0000000   0.0000000   0.0000000
  -0.0223746   0.0865884   0.0349763   0.3900376  -0.3153825  -0.5469281
   1.0935918   0.4519106   0.3841112   0.0000000   0.0000000   0.0000000
  -0.1272394  -0.0186828  -0.0532591   0.2413557  -0.3951974   0.9343565
   0.2433683  -0.3402900   0.7161406   0.0000000   0.0000000   0.0000000
   0.0504824   0.2941917   0.0270216  -0.1420347   0.7318969  -0.2743060
  -0.2527907  -1.2298050  -0.0772738   0.0000000   0.0000000   0.0000000
  -0.1006148  -0.1527211  -0.1552496  -0.0732567   0.1610010  -0.8727944
  -0.9874593  -0.5314193  -0.6286096   0.0000000   0.0000000   0.0000000
  -0.1833828   0.0162673   0.0096085  -0.4376404  -0.4534799  -0.3842094
  -0.3617154   0.5684951  -0.1285547   0.0000000   0.0000000   0.0000000
  -0.2191348  -0.1034839   0.0167580  -0.0763091   0.4373613   0.2012350
  -0.1437135  -0.4349430   0.2750957   0.0000000   0.0000000   0.0000000
   0.2088071  -0.1703406   0.0573860   0.5449075   0.3594482  -0.4980539
   0.0922305  -0.9648853   0.2097553   0.0000000   0.0000000   0.0000000
  -0.0910280   0.0218403  -0.3407106   0.5602837  -0.0997975  -0.6275595
  -0.2749016  -0.5000985  -0.2907750   0.0000000   0.0000000   0.0000000
  -0.0535142   0.2563999  -0.1379696   0.0891891  -0.3532603   0.5821325
   0.4853587   0.5771797  -0.3131133   0.0000000   0.0000000   0.0000000
  -0.3630775   0.0447170  -0.2245056  -0.9424409   0.6367395  -0.3750090
  -0.6956389   0.6183862  -1.5490070   0.0000000   0.0000000   0.0000000
   0.2720491  -0.1702137  -0.3029993   0.8543582  -0.1381452   0.4015352
   0.5741086  -0.8020376  -1.1165796   0.0000000   0.0000000   0.0000000
  -0.0793909  -0.0252748   0.2406821   0.2379286  -0.6502481  -0.2302649
   0.3734181   0.0433170   0.7419039   0.0000000   0.0000000   0.0000000
   0.0262311  -0.0599759   0.1900210   0.7955659  -0.1983412  -0.0766380
   0.0175944  -0.5553405   0.3816890   0.0000000   0.0000000   0.0000000
  -0.0724129  -0.0581222   0.1884043  -0.3017984   0.1068562  -0.5447902
  -0.6670745   0.6212925   1.3380942   0.0000000   0.0000000   0.0000000
  -0.3171720   0.1722825   0.0220402  -0.3417137  -0.1880581  -0.2438567
   0.2036090  -0.0529333   0.2162087   0.0000000   0.0000000   0.0000000
   0.0679241  -0.0101815   0.1170078  -0.0435589  -0.3478873   0.4076513
   0.0179520   0.5717305   0.1029739   0.0000000   0.0000000   0.0000000
  -0.1917073  -0.2012092   0.2785832   0.0192164  -0.3637666   0.3973604
  -0.0017643   0.0805619   0.2878756   0.0000000   0.0000000   0.0000000
  -0.0202197   0.1409478   0.0967268   0.9113739  -0.2142718   0.2641508
   0.4423355   0.6565732  -0.1936681   0.0000000   0.0000000   0.0000000
  -0.3281444   0.0073362  -0.0064860  -0.1346184  -0.5917916  -0.2373060
  -1.2459401   0.2537314   0.3634148   0.0000000   0.0000000   0.0000000
  -0.1800199   0.1759135   0.3843746  -0.7015428  -0.5067568   0.4416642
  -0.2990028   0.2708147  -0.4536895   0.0000000   0.0000000   0.0000000
  -0.1613016  -0.2894447  -0.1404974  -0.3824533  -0.6842094   0.8304720
  -0.0299238   0.3376520   0.1201632   0.0000000   0.0000000   0.0000000
   0.0147972  -0.3195565   0.1094308   0.0012841  -0.8286093   0.0128000
   0.1705108  -0.8410803  -0.2186723   0.0000000   0.0000000   0.0000000
  -0.1161214  -0.1136370   0.0209858  -0.1020919   0.3861822   1.3560527
  -0.2791384   1.2243893  -0.3474960   0.0000000   0.0000000   0.0000000
   0.0580137  -0.2915349  -0.0271231   0.0491137  -0.1233259  -0.1494858
   0.6005180   0.5258165  -0.0530014   0.0000000   0.0000000   0.0000000
  -0.0537139   0.2517644   0.0310061  -0.0901376   0.0704805   0.0453020
  -0.1187074   0.3406806   0.0533555   0.0000000   0.0000000   0.0000000
  -0.2010993  -0.3718811  -0.1025465  -1.4160969  -1.2931514  -1.0956400
  -0.0429015   1.2596525  -0.1526686   0.0000000   0.0000000   0.0000000
   0.3047143   0.2316203  -0.3293644   1.3673992  -0.4864631  -0.1720900
  -0.0578701  -0.1654669  -0.3458308   0.0000000   0.0000000   0.0000000
   0.2011363   0.1228266  -0.1456362  -0.7877158   0.2956482  -1.2836567
  -0.1559861   0.4336497  -0.7613634   0.0000000   0.0000000   0.0000000
   0.0674127   0.1734595  -0.0243676  -0.9813854  -0.0728945   0.0414294
   0.3169128  -0.7258873  -0.3257402   0.0000000   0.0000000   0.0000000
  -0.1834756   0.1153061  -0.1521155   0.0349428  -0.5703513  -0.5647622
  -0.2167572   0.6849511  -0.6874773   0.0000000   0.0000000   0.0000000
   0.2401404  -0.3176785  -0.3514978   0.1475514  -0.2845833   0.1810425
   0.2546271  -0.1428781  -0.0329239   0.0000000   0.0000000   0.0000000
  -0.1939738  -0.2056780  -0.2287353  -0.1564341   0.4246164  -0.3881844
   1.3397167   1.0235684   0.6963892   0.0000000   0.0000000   0.0000000
  -0.3774469  -0.0070781  -0.0751912  -0.4419240  -0.2727438   0.1388475
   0.2998706   0.3965097  -0.2530318   0.0000000   0.0000000   0.0000000
   0.1181809   0.1597965   0.0341569   0.4436398   0.4961940   0.3533377
  -0.0756959   0.5153641  -0.3746986   0.0000000   0.0000000   0.0000000
  -0.1975117  -0.1773442   0.2516057   0.5977610  -0.0242462  -0.9152859
   0.7730741  -0.0663629   1.0071208   0.0000000   0.0000000   0.0000000
  -0.0630305  -0.0593468   0.0833586   0.4149599  -0.0198785  -0.4016862
  -0.4388597  -0.4308849  -0.2509886   0.0000000   0.0000000   0.0000000
   0.3926064  -0.0602078  -0.2541547   0.4399910   0.4309876   0.7991838
   1.1879744  -0.4250438  -0.8700965   0.0000000   0.0000000   0.0000000
  -0.3927361   0.1731581  -0.2255456   0.8411808   0.4264930   0.2994030
   0.0388196  -0.2192772  -0.2093279   0.0000000   0.0000000   0.0000000
   0.0365332  -0.0772039   0.1073209   0.0018750  -1.4404542   0.0131593
  -1.0548721   0.1803580   0.8793679   0.0000000   0.0000000   0.0000000
   0.2767342   0.0471573   0.1816661  -0.5925599  -0.4148052  -0.1190968
   0.7663295  -0.1128815   0.4465704   0.0000000   0.0000000   0.0000000
  -0.0309259   0.3109601  -0.2400337   0.3451588   0.1167982   0.1908971
  -0.7776041   0.1968650   1.2224571   0.0000000   0.0000000   0.0000000
   0.0126365   0.2276254   0.1689797  -0.0970557   0.3002701   0.0010387
   0.0722144   0.3509323   0.3894025   0.0000000   0.0000000   0.0000000
   0.2298464  -0.4621126   0.1661344   0.0821711   0.1147802  -0.1064494
   0.1132559  -0.0394062   0.2499690   0.0000000   0.0000000   0.0000000
  -0.3643439   0.1483537  -0.0002970  -0.0612105  -0.2188598  -0.3356221
  -0.1693542  -0.0782529   0.3119853   0.0000000   0.0000000   0.0000000
   0.0675315  -0.1627226   0.0726204  -0.3435585  -0.0432616   0.6143432
   0.6546419  -0.6643348  -0.2467009   0.0000000   0.0000000   0.0000000
  -0.1232577   0.1546002   0.0233209  -0.5966224   0.7257064  -0.3920326
   0.1487465  -0.5656045  -0.1948865   0.0000000   0.0000000   0.0000000
  -0.0046143   0.1524663  -0.0212509  -0.4961141   0.2231194   0.9398448
  -0.7127982   0.3705622   0.5545076   0.0000000   0.0000000   0.0000000
  -0.2515723   0.1885961  -0.1255704  -0.7039813  -0.4425359   0.2565419
  -0.7308454   0.7445754  -0.1954932   0.0000000   0.0000000   0.0000000
  -0.2529708   0.0849791  -0.0718264   0.0862022   0.3010216  -0.0778034
   0.1862147   0.1431833   0.0380868   0.0000000   0.0000000   0.0000000
  -0.0718209  -0.0919961   0.0020367   0.1046853  -0.1828203   0.7056141
  -0.4889283   0.3115415  -0.0634798   0.0000000   0.0000000   0.0000000
  -0.1755518   0.0336582   0.0309044   0.2416353  -0.7320846   0.1599096
   0.4804755   0.8684650   0.2814190   0.0000000   0.0000000   0.0000000
   0.0521172  -0.1060443   0.0826091   0.3099330  -0.3349530  -0.0882155
  -0.3210523  -0.4668815   0.1431606   0.0000000   0.0000000   0.0000000
   0.0380814   0.0128308   0.1152402  -0.0979392   0.0633677  -0.0678455
   0.3155324   0.9890604  -0.1969664   0.0000000   0.0000000   0.0000000
  -0.0236687   0.1667038  -0.0010746  -0.1404454   0.3463663   0.0058783
   0.6044243   1.0252019  -0.1406627   0.0000000   0.0000000   0.0000000
  -0.0581548   0.2917788   0.2846528   0.1444566   0.3521511  -0.0559105
   1.1534177  -0.4974121  -1.0422499   0.0000000   0.0000000   0.0000000
  -0.0335702   0.1427276  -0.0067647   0.1906646   0.8599387   0.1475756
  -0.4381916   0.5694807  -0.3163521   0.0000000   0.0000000   0.0000000
   0.2675446   0.3344066  -0.0500636   0.4059901  -0.1886219   0.1917684
   0.4000936   0.1430464  -1.0606488   0.0000000   0.0000000   0.0000000
   0.3697033   0.0766073   0.0383994  -0.4711408  -0.1579701   0.1431850
   0.4609126   0.8413233  -0.7155371   0.0000000   0.0000000   0.0000000
  -0.0862864   0.0131318   0.0937463  -0.4975673  -0.0949462   0.0646117
  -0.2027926   0.1780323   0.3837262   0.0000000   0.0000000   0.0000000
  -0.1862924  -0.0696346   0.2483783   0.2484844   0.2516438  -0.0137333
   0.1070709   0.1929412   0.0519784   0.0000000   0.0000000   0.0000000
  -0.0341960  -0.0369523   0.0106248   0.4811383   0.8498928  -0.8847759
   0.0594174   0.2748597  -0.3795255   0.0000000   0.0000000   0.0000000
   0.1261389   0.0052585   0.0832926  -0.2543979   0.4757827  -1.1295009
  -1.0965733  -0.5124608   0.5406405   0.0000000   0.0000000   0.0000000
   0.2129789  -0.4197506  -0.2946619   0.3626708  -0.5071436  -0.3590667
   0.1416535  -0.0342730  -0.4502314   0.0000000   0.0000000   0.0000000
   0.0227883   0.1165608  -0.1116808   0.5138070   0.5719046  -0.5544760
  -0.1741160  -0.3743498   0.9250017   0.0000000   0.0000000   0.0000000
   0.0890187  -0.1956172   0.0915171   0.7069916  -0.7479136  -0.5009939
   0.2525952   0.6153691  -1.4529287   0.0000000   0.0000000   0.0000000
  -0.1164096  -0.4017012  -0.0100942   0.5385431  -0.5053492   0.1601652
   0.6148027  -0.5546870   0.4542929   0.0000000   0.0000000   0.0000000
   0.1213457  -0.1388764  -0.2062900   0.1241868  -0.0149077  -0.4199729
   0.1152648  -0.3270972   0.0101093   0.0000000   0.0000000   0.0000000
  -0.0817821   0.1320693   0.0628100   0.2014167  -0.0094243   0.4213861
  -0.0739127  -0.6729933  -0.3288228   0.0000000   0.0000000   0.0000000
  -0.3938892  -0.0192951   0.3125357  -0.4841603   0.0985726  -0.0758067
   0.1492282   0.0294988   0.3293466   0.0000000   0.0000000   0.0000000
  -0.0921338   0.0802783   0.0032180   0.1213736   0.7920917  -0.9345346
  -0.0396832   0.6178751   0.6477619   0.0000000   0.0000000   0.0000000
  -0.2085615  -0.0070134  -0.0595542  -0.2813763   0.0284628  -0.0221348
  -0.1355221   0.0466197  -0.2981023   0.0000000   0.0000000   0.0000000
   0.1230773   0.0294708   0.1625358   0.6704308   0.1055902   0.4477693
  -0.1282654   0.7081014  -0.1100939   0.0000000   0.0000000   0.0000000
   0.1813130   0.1373670  -0.0278407   0.1287529   0.7091597  -0.1116779
   0.1965362  -0.3440033  -0.0537848   0.0000000   0.0000000   0.0000000
   0.5129500  -0.0898637   0.0328180   0.1408237   0.3704728   0.0676617
   0.4970509  -0.0700635  -0.9127853   0.0000000   0.0000000   0.0000000
  -0.2370998   0.4103839   0.1508805  -0.4733938   0.2333556   1.6892840
   0.1032095   0.7430729  -0.0630233   0.0000000   0.0000000   0.0000000
   0.3307959  -0.1336177  -0.1507410   0.7057296  -0.2870628  -0.0843488
  -0.3410564   0.1981322  -0.3542763   0.0000000   0.0000000   0.0000000
   0.0084989  -0.2883088  -0.0639052  -0.5933633  -1.4871137  -0.0621157
   0.2672922  -0.6284679  -1.2374148   0.0000000   0.0000000   0.0000000
   0.0657662  -0.1890054   0.0163006  -0.9888382   0.8336523  -0.5227460
   1.2180653  -0.6101039  -0.1463505   0.0000000   0.0000000   0.0000000
  -0.1220025   0.1879922   0.2827779   0.3782068  -0.2690784  -0.0773700
   0.0580484   0.1985426  -0.0969395   0.0000000   0.0000000   0.0000000
   0.1556965  -0.1277825  -0.2209948  -0.4268164  -0.4099591  -0.1092055
   0.8294321   0.4502146  -0.1369619   0.0000000   0.0000000   0.0000000
   0.1716537   0.2578244   0.1861781   0.2007601  -0.2239115   0.3894528
   0.0051649   0.2757131  -0.0843883   0.0000000   0.0000000   0.0000000
   0.2113212  -0.1718803  -0.0654684   1.1704669   0.3423271   1.0837479
   0.6742945   0.3907181  -0.2811107   0.0000000   0.0000000   0.0000000
   0.0985211  -0.3511311   0.0056499   0.4100463  -1.6690852  -0.6889780
  -0.6204735   0.3539131   0.2789275   0.0000000   0.0000000   0.0000000
  -0.0784657  -0.0104196   0.0239018  -0.0576957   0.4191527  -0.1049167
   0.2595571  -2.3133799   0.3155915   0.0000000   0.0000000   0.0000000
  -0.2572749  -0.0420153  -0.0695606   0.3147864   0.0866875  -0.5723804
   0.1127413   0.0223944   0.6257864   0.0000000   0.0000000   0.0000000
   0.1846994  -0.1384939  -0.1557790   0.4722299  -0.4551455   0.4918516
   0.0959303   0.1990000  -0.2768651   0.0000000   0.0000000   0.0000000
  -0.0882518  -0.1834287  -0.0270407   0.6700833  -0.7594082  -0.5288699
  -1.5413047   0.6536351   0.0505242   0.0000000   0.0000000   0.0000000
   0.0745805   0.3264747  -0.1196546   0.1601132   0.9115300  -0.0711199
   0.8404816  -0.0302516  -0.3387425   0.0000000   0.0000000   0.0000000
  -0.2742423  -0.1883867   0.2521082  -0.0479385  -1.0205212   0.0194235
   0.2933991   0.2816919  -0.4568446   0.0000000   0.0000000   0.0000000
  -0.2806447   0.1525126   0.0277616  -0.0753073  -0.3496787   1.0881350
  -0.2764377   0.3099326   0.0644505   0.0000000   0.0000000   0.0000000
   0.1157900  -0.1544871  -0.1187931  -0.5574179  -0.1516536  -0.4593511
  -0.1252458  -0.0209770  -0.2547014   0.0000000   0.0000000   0.0000000
   0.0255283   0.1216764  -0.1352494   1.0552911  -0.2267023  -0.0579239
   0.0637928   0.1700825  -0.3377978   0.0000000   0.0000000   0.0000000
   0.1939555   0.1163621  -0.1353368   1.2689530  -0.7524573  -0.4568839
   0.0119791   0.1981826  -0.0827520   0.0000000   0.0000000   0.0000000
  -0.1424961   0.1531084  -0.3640938   0.5689239  -0.9651220   0.7023003
  -0.1883492   0.1182725  -0.2213389   0.0000000   0.0000000   0.0000000
   0.0777545  -0.0033453   0.1248335   0.4805111  -0.2241740   0.8409217
   0.6815269  -0.2995428   0.9963488   0.0000000   0.0000000   0.0000000
   0.2352673   0.0021411  -0.0782261  -0.0963394  -0.5800955  -0.1657375
   0.0423826  -0.4020063  -1.1235993   0.0000000   0.0000000   0.0000000
   0.0376192   0.0525738  -0.0573802   0.5923369   0.1694939   0.2928022
  -0.4121882   0.0391635   0.5204002   0.0000000   0.0000000   0.0000000
  -0.1452781  -0.2878755   0.0273648  -0.7547957  -0.1509379  -0.2467219
   0.1053991  -0.6936471   0.4144121   0.0000000   0.0000000   0.0000000
   0.2105400  -0.1031708  -0.2375722   0.2041642  -0.1282783   0.0347616
   0.2250484  -0.1730460   0.0254713   0.0000000   0.0000000   0.0000000
  -0.2327629   0.3200282   0.1670355   0.0522439  -1.1712787   0.0979222
   0.3058184   1.1693972   0.0989890   0.0000000   0.0000000   0.0000000
   0.0904836  -0.0232494   0.0570211  -0.1775907   0.1136758   0.4793702
   0.1607242   0.0026818  -0.0054175   0.0000000   0.0000000   0.0000000
  -0.0291659   0.0597387   0.0140465   0.4226627   0.0689122  -0.6653949
  -0.2745660   0.0526785   0.4600664   0.0000000   0.0000000   0.0000000
  -0.0755420  -0.0078708   0.0637365  -0.1082642  -0.3400677   0.0798564
  -0.0089206  -0.1112947  -0.0708425   0.0000000   0.0000000   0.0000000
  -0.2175358  -0.0422044   0.0324718   0.0868371   0.7312832   0.1867133
  -0.7577966  -0.5112023   0.7655948   0.0000000   0.0000000   0.0000000
   0.0813265  -0.1103161  -0.2118250   0.0431419   0.2092013   0.1703037
  -0.2610772   1.0361591  -0.8608182   0.0000000   0.0000000   0.0000000
  -0.1801749  -0.0949371  -0.1423050  -0.2605228   1.1251820   0.3203828
   0.1977663  -1.0152743  -0.0767694   0.0000000   0.0000000   0.0000000
  -0.0699295  -0.0835946   0.0998519  -0.0237681   0.0320978   0.2158298
  -0.3579368  -0.7431384  -0.3529672   0.0000000   0.0000000   0.0000000
  -0.0562524   0.3053939   0.0494911   0.1799183  -0.3371068  -1.3234347
  -0.0187530   0.1788795   1.1719954   0.0000000   0.0000000   0.0000000
  -0.0558488  -0.0490243  -0.2154146   0.0361996  -0.6316532   0.2465404
   0.3464151  -0.3196421  -0.0349508   0.0000000   0.0000000   0.0000000
  -0.1296468   0.3288893  -0.0477417  -0.1918643  -0.3712955   0.5958032
  -0.4725771   0.3585186  -0.9141127   0.0000000   0.0000000   0.0000000
  -0.1327366  -0.4893553  -0.2040524  -0.2519624  -0.3291114  -0.2938046
   0.0399506  -1.0188194  -0.5466896   0.0000000   0.0000000   0.0000000
  -0.0307879   0.1474187   0.0648089  -0.8185496   1.4437054  -0.9419298
  -0.2955891   0.6489154  -0.2750265   0.0000000   0.0000000   0.0000000
  -0.3247152  -0.3421440   0.0952907   0.0801340   0.2275986   1.0579477
  -0.1841092  -0.0249500  -1.3018201   0.0000000   0.0000000   0.0000000
   0.1385535  -0.1523284  -0.1299778   0.4860671  -0.5791867  -0.6829979
  -0.0440563   0.0776396   0.3768538   0.0000000   0.0000000   0.0000000
  -0.0680835   0.1027729   0.1822288  -1.5129083  -0.5554363  -0.3933187
  -0.8160514  -0.4975135   1.1149945   0.0000000   0.0000000   0.0000000
  -0.1871848   0.1492904  -0.3122279   0.1643968  -0.1086036   0.3988260
   0.0611243   0.2251100  -1.3533946   0.0000000   0.0000000   0.0000000
  -0.1847959   0.2361814  -0.1453826  -0.2821550  -0.3167630  -0.7299118
  -0.1073860   0.4015823   0.2379230   0.0000000   0.0000000   0.0000000
  -0.0418788  -0.0017994  -0.0776302   0.4084025  -0.4298985  -0.1551251
  -0.2246507   0.0841459   0.0999715   0.0000000   0.0000000   0.0000000
   0.0462223   0.2268481   0.0227209   0.0421295   0.1075858  -0.1253273
  -0.2841544   0.5882174  -0.0599670   0.0000000   0.0000000   0.0000000
  -0.1008398  -0.0558625   0.1104282   0.6695122  -0.0114858   0.3128208
  -0.7723219  -0.7758485   0.4190645   0.0000000   0.0000000   0.0000000
  -0.1331542   0.2917549  -0.0513665  -0.4135478   0.2799792   0.1944728
  -0.0444935   0.0712404   0.1648456   0.0000000   0.0000000   0.0000000
   0.0346771   0.2212698   0.2766757   0.6451590   0.2170069  -0.7790810
  -0.2271992   0.2148802  -0.3523589   0.0000000   0.0000000   0.0000000
   0.0369801   0.1496563   0.2901201   0.1257506   0.1794901   0.0097469
  -0.8931895  -0.3665267  -0.3135669   0.0000000   0.0000000   0.0000000
   0.2769088   0.2552274   0.0831432   0.0166141  -0.4949351  -0.2608627
   0.0897781   0.3818874   0.5294682   0.0000000   0.0000000   0.0000000
  -0.0430606  -0.3387575   0.1403288  -0.6162174   0.0970584  -0.1879078
  -0.0056807  -0.4418665  -0.0621244   0.0000000   0.0000000   0.0000000
   0.1810669   0.1376099  -0.2403059  -0.1754958  -0.3493221   0.9088535
   0.2568346   0.8456229  -0.1786496   0.0000000   0.0000000   0.0000000
  -0.1809418  -0.0138236   0.1905364  -0.4115994  -0.3170406  -0.4108028
  -0.5101997  -0.5195322  -0.7068216   0.0000000   0.0000000   0.0000000
  -0.0541100  -0.0902712  -0.1929078  -0.1579098  -0.7769682   0.3007673
   0.3363976   0.5509704   0.1960770   0.0000000   0.0000000   0.0000000
   0.2109367  -0.1820107   0.0039235  -0.0360152  -0.1835064  -0.4784231
   0.0567295   0.2058697  -0.1188740   0.0000000   0.0000000   0.0000000
  -0.1364758   0.2102666  -0.4018821   0.6148379  -0.9503732  -0.4421341
  -0.3362660   0.3497617   0.8208962   0.0000000   0.0000000   0.0000000
   0.2967416  -0.1150800  -0.0672613   0.5765013   0.3896139   0.2922629
   0.0507944   0.1826852  -0.5013033   0.0000000   0.0000000   0.0000000
  -0.1266689  -0.0902241  -0.0076759  -0.0058134  -0.1193380   0.1239032
   0.9424836  -0.2145821   0.4621706   0.0000000   0.0000000   0.0000000
  -0.1987064   0.1078635   0.0296914   0.3487016   0.8507002   0.2373906
  -0.3052758  -0.1820475  -0.0759261   0.0000000   0.0000000   0.0000000
  -0.0856559  -0.2211099  -0.0023352  -0.1764600  -0.0299786  -0.2021970
  -0.1818675   0.0293829   0.3966721   0.0000000   0.0000000   0.0000000
   0.2971625  -0.1542811  -0.0060203   0.9702055  -0.1427075   0.7897136
   1.1010102  -0.4051922  -0.7455313   0.0000000   0.0000000   0.0000000
   0.0488006  -0.1461232  -0.2090206   0.0188552   0.1210470  -0.5230628
   0.2968295  -0.2137029  -0.3972928   0.0000000   0.0000000   0.0000000
   0.3546858  -0.1056398   0.2560722   0.5270354  -0.0829681  -0.0493623
   0.2708788  -0.1685226   0.3244570   0.0000000   0.0000000   0.0000000
   0.2057526  -0.0573448  -0.1437566  -0.0408458  -0.0837116  -0.1714159
   0.9025780   0.0817182  -0.2151371   0.0000000   0.0000000   0.0000000
  -0.0083155   0.0398221   0.0354707  -1.1765619   1.7602280  -1.0005582
  -1.4841739  -0.0156188  -0.5107151   0.0000000   0.0000000   0.0000000
  -0.1892106  -0.1190852  -0.0844341  -0.1489480   0.0978644  -0.0192400
   0.3171775  -0.4363786  -0.4231992   0.0000000   0.0000000   0.0000000
   0.2846739  -0.0270591   0.1057672  -0.0463399  -0.4328790  -0.4012446
   0.5042294  -0.2028575  -0.1084019   0.0000000   0.0000000   0.0000000
   0.2368562  -0.0110787   0.3337382  -0.8393185  -0.3999696  -0.3153793
   0.5525890   0.0703436  -0.2049783   0.0000000   0.0000000   0.0000000
   0.1740758  -0.2239054  -0.2224948   0.9227518   0.3695608  -0.0500676
   0.3634828  -1.0844282   1.0134130   0.0000000   0.0000000   0.0000000
  -0.0659161  -0.0207193  -0.1697854   0.6470178   0.6362709   0.0972508
  -0.2735324   0.7042074  -0.8165654   0.0000000   0.0000000   0.0000000
   0.4056594  -0.1518428  -0.0782034   0.0163934   0.0119688   0.0074231
  -1.0292991   1.1161972  -0.0080258   0.0000000   0.0000000   0.0000000
   0.2422209  -0.1343293   0.5205717   0.2244423  -0.0188653   0.5908151
   0.3692039  -0.1542073   0.5117319   0.0000000   0.0000000   0.0000000
  -0.0144527   0.2016772   0.0914264   0.5577487   0.0739165   0.2339280
   0.3669440   0.6559608   0.4396393   0.0000000   0.0000000   0.0000000
   0.2764443  -0.2329015  -0.3579053   0.0727504   0.5753793  -0.8862465
   0.3579795   0.0538497   0.0046029   0.0000000   0.0000000   0.0000000
   0.0460270  -0.1562877   0.1397462  -0.2295776   0.4366306   0.6174793
   0.4009430  -0.7946295   0.5282641   0.0000000   0.0000000   0.0000000
   0.2344695  -0.0655280   0.0449057   0.5095240  -0.5650194  -0.4436470
   0.2211506   0.0818883   0.0966134   0.0000000   0.0000000   0.0000000
  -0.0783306   0.1247295   0.3726562  -0.4478405  -0.9692050  -0.9456634
  -0.3221043   0.0168107   0.7188410   0.0000000   0.0000000   0.0000000
   0.2897403  -0.1414051   0.4057457   0.7555520   0.7133765   0.5379283
   0.1993868  -0.7128268   0.9833744   0.0000000   0.0000000   0.0000000
  -0.2632445   0.0179855   0.0244150  -0.8625766   0.1979599   0.0253027
   0.1135567   0.2904795   0.3048666   0.0000000   0.0000000   0.0000000
   0.3102473  -0.0560287  -0.0233388   0.3985083   0.0100198   0.0048870
   0.1545624  -0.2120159  -0.2776261   0.0000000   0.0000000   0.0000000
  -0.0329916  -0.0454599  -0.0480433   0.1630382  -0.6874368   0.2252506
  -0.3001898  -0.2005634  -0.7248444   0.0000000   0.0000000   0.0000000
   0.0137391   0.1940675   0.2523722   0.2524648   0.1091012   0.4833524
   0.5332468  -0.1299180   0.9525397   0.0000000   0.0000000   0.0000000
   0.1923964  -0.0985813   0.1871479  -0.1239694   0.2470076   0.6847396
  -0.3615046  -0.0321311  -0.1327016   0.0000000   0.0000000   0.0000000
   0.0767085  -0.1582376  -0.0432564  -1.3823234   0.1365298  -0.2412538
  -0.5892463   1.2584942   0.1063481   0.0000000   0.0000000   0.0000000
  -0.2671277  -0.3036984  -0.0500593   0.2243989  -0.6787580   1.2392137
  -0.1788704  -0.2153444   0.0877303   0.0000000   0.0000000   0.0000000
  -0.2292884   0.0105292   0.1619988   0.2619602  -0.0027256   0.3124864
   0.0557455  -0.9757251   0.7304831   0.0000000   0.0000000   0.0000000
  -0.1064966   0.0628820   0.1670545  -1.1950419  -0.9143551  -0.0788111
   0.2202210  -0.9580686   1.0611393   0.0000000   0.0000000   0.0000000
  -0.1579724  -0.0463423  -0.1807604  -0.3874738  -0.1844014  -0.4965013
  -0.1260380   0.0289848   0.2733167   0.0000000   0.0000000   0.0000000
  -0.0854544   0.2809312  -0.0264035  -0.4181550  -0.2360859   0.1965392
  -0.8562751  -0.3511900  -1.6599074   0.0000000   0.0000000   0.0000000
  -0.0421474  -0.0743280  -0.0808696   0.5017083  -0.2583772   0.6733476
  -0.0081120   0.0476225   0.0705319   0.0000000   0.0000000   0.0000000
   0.0311133   0.1140840   0.0476588  -0.1182471   0.3123787   1.1579786
   0.1780938   0.0113438  -1.0080790   0.0000000   0.0000000   0.0000000
   0.1389791  -0.4712553   0.0087702  -2.3727174  -0.9321353   0.2038226
  -0.6273509  -0.4792270  -0.9708445   0.0000000   0.0000000   0.0000000
  -0.3253956   0.1027310  -0.1186367  -0.3250171   0.2778474  -0.0547482
  -0.3632689  -0.0792287   0.0796435   0.0000000   0.0000000   0.0000000
   0.1675254   0.1429411  -0.3005718   0.8761013   0.0636482   0.1521420
  -0.1881784  -0.0711372  -0.4431095   0.0000000   0.0000000   0.0000000
   0.0102717  -0.1651852   0.0871037   0.2706136  -0.3575207  -0.5159282
  -0.6767361  -0.2136214   0.0056419   0.0000000   0.0000000   0.0000000
  -0.0383943  -0.0893570  -0.0503624   1.3239662   0.3265773  -0.3902252
   0.3220637   0.0024338  -0.1221639   0.0000000   0.0000000   0.0000000
   0.1744150  -0.0681793   0.1011707   0.8820327  -0.1578768  -0.4928398
  -0.8139055   0.2575503  -0.2975191   0.0000000   0.0000000   0.0000000
  -0.1667614   0.0997136   0.0684244  -0.6666621   0.5047286   0.2152746
  -0.2499099  -0.5774570   0.1522577   0.0000000   0.0000000   0.0000000
  -0.2650768   0.2028329  -0.1140121   0.0784119   0.6948916  -0.0436431
  -0.2289258  -0.1319609   0.3607611   0.0000000   0.0000000   0.0000000
   0.1148470   0.0637488   0.4659050  -0.7924202  -0.7312582  -0.2018353
  -0.0160115  -0.5282499   1.7729108   0.0000000   0.0000000   0.0000000
  -0.1462838  -0.0442463   0.1325460   0.2995276  -0.3630833   0.7834051
  -0.1156952  -0.5186939   0.0197436   0.0000000   0.0000000   0.0000000
  -0.0600366  -0.1975480  -0.2221975   0.0210050   0.1218112  -0.1724208
  -1.0954368  -1.1140346   0.1183467   0.0000000   0.0000000   0.0000000
  -0.2236716  -0.0652665  -0.0875984  -0.1072710  -0.0070833   0.2154208
   0.1106284   0.4925506   0.9700415   0.0000000   0.0000000   0.0000000
  -0.1349968  -0.1498075   0.2643638  -0.7277327   0.1826256   0.6965019
   0.2577975  -0.7082638  -0.1497410   0.0000000   0.0000000   0.0000000
   0.1639110  -0.1360414  -0.2699903   0.4938868  -0.0790245   0.2071003
   0.3275873   0.0524449   0.1438788   0.0000000   0.0000000   0.0000000
  -0.0618459   0.0291752   0.1138013   0.2080011   0.3348805  -0.3087563
  -0.5207546  -0.0835357  -0.1975993   0.0000000   0.0000000   0.0000000
   0.2852041   0.1631779  -0.2101640  -0.6844414  -0.4147037  -0.1922632
   0.5130445   0.6863100  -0.2445177   0.0000000   0.0000000   0.0000000
   0.4338077   0.2025295   0.0583187  -0.4515930   0.2330460   1.0554913
   0.1597166   0.4471680   0.3415130   0.0000000   0.0000000   0.0000000
   0.1693057   0.1731449  -0.0001659  -0.2857260  -1.0044445  -0.2679709
   0.5578119   1.4615255   0.2900611   0.0000000   0.0000000   0.0000000
   0.1699459   0.2189271  -0.0109229  -0.1446745  -0.3360041   0.8514751
   0.3229348   0.3994339  -0.2728015   0.0000000   0.0000000   0.0000000
   0.1634041  -0.2243262  -0.2667445   0.3237663  -0.1707318  -0.1342188
  -0.2753431  -0.1174668   0.1598823   0.0000000   0.0000000   0.0000000
   0.1888989   0.3144925  -0.1594949   0.5540149  -0.4785011  -0.4357427
   0.4474472  -0.2689247  -0.2277257   0.0000000   0.0000000   0.0000000
   0.0175427  -0.1720212   0.2188194   0.4000965  -0.4028626   0.9040614
  -0.8351009   0.7847446   0.4571529   0.0000000   0.0000000   0.0000000
   0.0491235  -0.0634078  -0.0970564   0.0209600  -0.1147629   0.3091904
   0.4225216   0.1722344  -0.1700267   0.0000000   0.0000000   0.0000000
   0.1136147  -0.1403318   0.0621217   1.1321463  -0.4671600   0.1232786
  -0.1774542  -0.5144947  -0.9542190   0.0000000   0.0000000   0.0000000
  -0.0441341  -0.4636564  -0.1332720  -0.3064889   0.3912801  -0.1205619
  -1.0653130   0.5970382   1.3351230   0.0000000   0.0000000   0.0000000
  -0.2665504  -0.0027294  -0.0610652   1.8722860   0.5490298   0.8836796
   0.8586809  -1.3213487  -0.4852662   0.0000000   0.0000000   0.0000000
   0.0088188   0.2499629   0.0719218  -0.6692630  -0.8511186   0.3029377
   0.0405247   0.1364274   0.0657188   0.0000000   0.0000000   0.0000000
  -0.0791608   0.0255134   0.0516774   0.2336539  -0.0971294   0.0425252
  -0.2218898   0.1206638  -0.3091206   0.0000000   0.0000000   0.0000000
  -0.1456705  -0.0451501   0.0347449  -0.4304162  -0.3258055  -0.3960594
  -0.4383661   0.2626775   0.1937664   0.0000000   0.0000000   0.0000000
  -0.2166271  -0.3288698  -0.0857864   0.2107632   1.2490227  -0.4637896
  -1.4984411  -0.3741595  -0.2135976   0.0000000   0.0000000   0.0000000
   0.1691263  -0.0599112  -0.1113346   0.2711816  -0.2497174   0.6363383
   0.5645153  -0.6656443  -0.6479592   0.0000000   0.0000000   0.0000000
   0.2841628   0.1665602  -0.0215544  -0.5494518   1.0555617   0.7173278
   0.5214529   0.4085656   0.5820508   0.0000000   0.0000000   0.0000000
  -0.3008945  -0.1337156   0.0928377  -0.3965643  -0.2720340   0.3907666
  -0.4984487  -0.5235400  -0.0271717   0.0000000   0.0000000   0.0000000
  -0.2189846   0.0465015  -0.0452190  -0.1041690   0.3759434   0.2667095
   0.0403599  -0.1166686  -0.3281869   0.0000000   0.0000000   0.0000000
  -0.1882553  -0.4923511  -0.3590154  -0.8290108   0.8538633  -1.5465197
   0.0039445   0.6617753  -1.0634418   0.0000000   0.0000000   0.0000000
  -0.0564804  -0.0746823  -0.1705682  -0.0136104  -0.1670011  -0.1904675
  -0.1365146   0.7348467  -0.3357806   0.0000000   0.0000000   0.0000000
   0.3313390   0.1267881   0.1468010  -0.0199595   0.2888264   0.6747287
   0.3880564   0.1245390  -0.5883387   0.0000000   0.0000000   0.0000000
   0.1327423   0.1095656  -0.0833510   0.2731760  -0.1074725   0.0473280
   0.1432814  -0.2490665   0.4886464   0.0000000   0.0000000   0.0000000
   0.0193397  -0.0294130   0.2709135   0.1432079   0.8478935  -0.3905985
  -0.1740794  -0.2154127   0.1701499   0.0000000   0.0000000   0.0000000
   0.2514806   0.3320354   0.0650070   1.1827596   0.6563511  -0.1868279
   0.3432816   0.5578205  -0.1392083   0.0000000   0.0000000   0.0000000
  -0.0085204   0.0106926  -0.0118939  -0.5339539  -0.3274503   0.5133698
  -0.3700659  -0.1079755   0.5959952   0.0000000   0.0000000   0.0000000
  -0.4180777   0.1124271  -0.1752656  -0.9846510  -0.1634154  -0.8110016
   0.2923676  -0.3202874   0.2258844   0.0000000   0.0000000   0.0000000
   0.2115543   0.2721948  -0.0546305   0.3148915   0.0522277  -0.1252816
  -0.4876617  -0.2592920   0.3074093   0.0000000   0.0000000   0.0000000
   0.1173287  -0.1716898   0.0472588  -0.3801172  -0.6167258   0.3825576
  -0.0157862  -1.2566881   1.5091234   0.0000000   0.0000000   0.0000000
  -0.1798992  -0.2544052  -0.0673508   0.0574946   0.7550705  -0.1540680
   0.0356825   0.3689072   0.3941516   0.0000000   0.0000000   0.0000000
   0.2962313  -0.1835072  -0.1474763   1.3507839   1.1863437   0.2398695
  -0.6736966   0.2526320   0.3267674   0.0000000   0.0000000   0.0000000
   0.0403266  -0.0156902   0.1137194  -0.1436578  -0.5096601  -0.1364791
  -0.1933404   0.3378676   0.2106971   0.0000000   0.0000000   0.0000000
   0.5391403  -0.1967795  -0.2156365   0.7412097   0.2519497  -0.4157442
   0.3120067  -0.8046452  -0.8019929   0.0000000   0.0000000   0.0000000
   0.0663716  -0.0561378  -0.1491219  -0.0799318  -0.6203239   0.3791212
   0.0068265   0.1876066  -0.4122039   0.0000000   0.0000000   0.0000000
  -0.1302235   0.0790667  -0.0573274  -0.1159351  -0.3971651   0.4217181
   0.4381101  -0.2876440  -0.4267777   0.0000000   0.0000000   0.0000000
   0.0828476  -0.0854129   0.2448699  -0.3526808  -0.5122067   0.8205380
   0.1155075  -0.1318599   0.2870192   0.0000000   0.0000000   0.0000000
   0.1261831   0.0050602  -0.0146592   0.0199735  -0.0402245  -0.1452590
   0.3207632   0.2248832   0.3203414   0.0000000   0.0000000   0.0000000
   0.0810590   0.0119317  -0.1903796   0.0457438  -0.6753110  -0.2198155
  -0.0171982   0.2730202  -1.1221341   0.0000000   0.0000000   0.0000000
   0.1096018  -0.0363694   0.0464957   0.3312241  -0.6949610  -1.1919421
  -0.2974422  -0.6790239   0.8824342   0.0000000   0.0000000   0.0000000
   0.0929862  -0.0068916   0.2091055   0.0676654  -0.4687919   0.6371951
   1.1002946  -0.6308833   0.2448309   0.0000000   0.0000000   0.0000000
  -0.2022867   0.0614263  -0.2446267  -1.5329152  -0.2533211  -0.1106654
  -0.3148070   1.2876064   0.4916760   0.0000000   0.0000000   0.0000000
   0.1464266  -0.1895338   0.1378787   0.3357303  -1.0688173   0.2399784
   0.0981540  -0.2236067   1.4410119   0.0000000   0.0000000   0.0000000
  -0.1529106   0.4047410   0.0506884  -0.5175994   0.5022389   0.6774483
   0.0845710   0.2883588  -0.4307328   0.0000000   0.0000000   0.0000000
   0.4621785   0.1085202   0.0540586   0.6190472   0.2512837   0.4189594
   0.6047596   0.2935668   0.6088794   0.0000000   0.0000000   0.0000000
   0.1448379   0.1003260  -0.0094371  -0.8203712  -0.2081475  -0.5017616
   0.7992518  -0.8165875  -0.0806625   0.0000000   0.0000000   0.0000000
   0.2332113   0.2086078   0.0755770  -1.1432196   0.7827937   0.7640538
   0.5063761  -0.5404410  -0.9122982   0.0000000   0.0000000   0.0000000
  -0.1652087  -0.0066714   0.0213732  -0.4023188  -0.6018353   0.2813204
   0.0062567   1.3223054  -1.1185090   0.0000000   0.0000000   0.0000000
   0.2310636   0.0383105  -0.2938278  -0.1034620   0.0022170   0.2265994
   0.3552559  -0.9228423  -0.9775769   0.0000000   0.0000000   0.0000000
   0.0224037  -0.0115911   0.1250032  -0.1948898   0.0098361   0.3730717
   0.0106222   0.2500949  -0.1205554   0.0000000   0.0000000   0.0000000
  -0.0005236   0.1005617  -0.0636372   0.6556512   1.7830236  -0.5710299
  -0.3438608   0.7597463  -0.4148734   0.0000000   0.0000000   0.0000000
  -0.0552401   0.2002020   0.1882852   0.3534904  -0.0290323  -0.2527814
   0.2318221   0.1001725  -0.3888224   0.0000000   0.0000000   0.0000000
  -0.2216002  -0.0890557   0.1829646   0.2385379  -0.1277228  -0.8624739
  -1.3702395  -0.6651211  -0.1998613   0.0000000   0.0000000   0.0000000
   0.2864160  -0.0968157   0.1021570   0.5568688  -0.5119522   0.3138168
   0.4782351   0.1071221   0.7724321   0.0000000   0.0000000   0.0000000
   0.2948912   0.2701444   0.3232907  -0.7108591  -0.5748491   0.5827245
  -0.7021627   0.0275505   0.6191077   0.0000000   0.0000000   0.0000000
  -0.2733551   0.1513556  -0.1349772  -0.5508394   0.0295170  -0.3476023
  -0.1758095   0.2418762   0.9928899   0.0000000   0.0000000   0.0000000
  -0.0599980  -0.1276433  -0.0819261  -0.1585776  -0.4973491   0.7028159
   0.5214543  -0.3621446   0.8283658   0.0000000   0.0000000   0.0000000
   0.1265233  -0.0733460  -0.1041694  -0.7431147  -0.1157380   0.0357657
   0.0193435  -0.6329866   0.1579225   0.0000000   0.0000000   0.0000000
  -0.2565086  -0.2151242   0.3463981  -0.3863936  -0.0458432   0.5266982
   0.6129414  -1.2849492  -0.5159981   0.0000000   0.0000000   0.0000000
  -0.0338460  -0.0692311  -0.3666311  -0.3503953  -0.0471500   0.8698110
   0.0353811  -0.2187641  -1.2284463   0.0000000   0.0000000   0.0000000
  -0.0032536  -0.0088410  -0.1711315   0.4137211  -0.0932522  -0.2000402
  -0.4040088   0.2951510  -0.1627838   0.0000000   0.0000000   0.0000000
   0.0546792  -0.1757402   0.2668465   0.0837115  -0.7925930   0.0534583
  -0.5098810  -0.8007180   0.7142964   0.0000000   0.0000000   0.0000000
  -0.1422777  -0.3023466   0.2500985  -0.3500781   0.0174600   0.5600659
   0.4613660  -0.7033236  -1.0912339   0.0000000   0.0000000   0.0000000
  -0.0695280   0.2021106  -0.0874809  -0.1008463   0.7707949   0.0176147
  -0.1837787  -0.9699685  -0.1550031   0.0000000   0.0000000   0.0000000
  -0.2328191  -0.2483256   0.1774129  -0.3699704   0.2086855   1.2639007
   0.2969469  -0.2104709   0.5636118   0.0000000   0.0000000   0.0000000
  -0.2032277  -0.1879190   0.1513469  -0.9980082   0.3257092   1.0327609
  -0.0174146   1.0407189  -0.3084932   0.0000000   0.0000000   0.0000000
  -0.0961664  -0.0037833   0.3463758   0.0061391   0.4402895   0.2608748
  -0.6372605  -0.1706283   0.0492871   0.0000000   0.0000000   0.0000000
  -0.1807456  -0.2953623  -0.1360618  -0.0335390  -0.3713051  -0.4918811
  -0.4971631  -0.0212258   0.1323871   0.0000000   0.0000000   0.0000000
  -0.1015300   0.2005006   0.3251466   0.1648984   0.6131294   0.7542286
  -0.1069678   0.2036048   0.7560619   0.0000000   0.0000000   0.0000000
   0.0999441  -0.1246871  -0.2130524  -0.3539677  -0.4139380  -0.3232551
  -0.2927143  -0.6063758   1.0315499   0.0000000   0.0000000   0.0000000
   0.2322726  -0.0709562  -0.0516560   0.0267792  -0.3442565  -0.0866041
   0.1829348   0.3066749   0.1603197   0.0000000   0.0000000   0.0000000
  -0.0510185  -0.1058419  -0.3696126  -0.4915039   0.2483662  -0.0517405
   0.4006483   0.3200245  -0.3068092   0.0000000   0.0000000   0.0000000
   0.1406864   0.1651380   0.1014499   0.3225620  -0.1842352  -0.3584933
   0.1550971   0.2605267   0.0752919   0.0000000   0.0000000   0.0000000
  -0.0469389   0.0787604   0.2951323   0.7257296   0.0737195   0.1466770
  -0.3857329  -0.2096824   0.4846386   0.0000000   0.0000000   0.0000000
   0.0115099   0.0323159  -0.2878949  -1.1511498  -0.1716843  -0.1885284
  -0.4518117   0.5732992   0.1598860   0.0000000   0.0000000   0.0000000
  -0.0166033   0.0750295  -0.0815865   0.2674130   0.9245141  -1.7182883
  -0.4246514  -0.9423897   1.0311557   0.0000000   0.0000000   0.0000000
   0.2772451   0.3143156   0.1973624   0.4268728   0.2988025   0.0746700
   0.4121684   0.3413098  -0.4498607   0.0000000   0.0000000   0.0000000
   0.0358595  -0.1547514   0.4250503  -0.9050748   0.0534645  -0.5396125
  -0.0961601  -0.1223487   0.2149340   0.0000000   0.0000000   0.0000000
   0.0077511   0.3203242   0.1242139   0.2438721   1.0179761  -0.4327565
  -0.0306623  -0.1205168   0.4869678   0.0000000   0.0000000   0.0000000
   0.1952089  -0.0973007   0.0318482  -0.4735092  -0.1446725   0.1130976
   0.5606319  -0.1821688  -0.2027841   0.0000000   0.0000000   0.0000000
   0.2305558  -0.0071917   0.2066237   0.4363872  -0.1122692   0.4573604
   0.6344189   0.3469753   0.2667809   0.0000000   0.0000000   0.0000000
  -0.0855393   0.1371202   0.1320366   0.4659723   0.4909704   0.1233796
   0.2172828   0.1403609   0.0852616   0.0000000   0.0000000   0.0000000
   0.0079899   0.1826801   0.0781989  -0.6368878  -1.9398416  -1.0159086
  -0.2660627  -1.1152171   0.2166712   0.0000000   0.0000000   0.0000000
   0.1053842  -0.1126680   0.1317812  -0.2199293  -0.4191996   0.0138858
   0.3755941   0.1952317   0.1172345   0.0000000   0.0000000   0.0000000
  -0.1663576   0.1655951  -0.2683500   0.4135359  -1.1125358  -1.1004097
  -0.1747320  -0.0024001  -0.8256587   0.0000000   0.0000000   0.0000000
  -0.1469354   0.1147592   0.0310783   0.7152140  -0.0515946  -0.1537598
   0.3504302   0.0996343  -0.2227301   0.0000000   0.0000000   0.0000000
  -0.2637053  -0.0065719  -0.0046250   0.3156770  -0.0587849  -0.3781288
  -0.5084313  -0.4796474   1.0157863   0.0000000   0.0000000   0.0000000
   0.0803316   0.3405662  -0.0759004  -0.4736643   0.9409736  -0.0270739
  -0.4607359  -0.0523640  -0.1353822   0.0000000   0.0000000   0.0000000
  -0.1613113   0.2626000   0.1166688   0.5409462  -0.0181794   0.1667507
  -1.6054842   0.1994377  -0.1544529   0.0000000   0.0000000   0.0000000
   0.1746635  -0.0117552  -0.0615100   0.5646855  -1.2817833  -1.3961742
   0.1738725  -0.3067452   0.4068139   0.0000000   0.0000000   0.0000000
   0.2309737  -0.0286119   0.1347564   0.2922880   0.4765994  -0.0498375
   0.1211172   0.1826815   0.6753839   0.0000000   0.0000000   0.0000000
   0.0597235  -0.2926826   0.1997316  -0.0392841   0.4680646   0.2466075
   0.2624708  -0.8363395   0.2868603   0.0000000   0.0000000   0.0000000
   0.0870596   0.4281750  -0.1265180  -0.2593920   0.6276851  -0.3637595
   0.3310055   0.1171129   0.1223348   0.0000000   0.0000000   0.0000000
  -0.0364605   0.2077888   0.1435363  -0.3527122   0.2034480   0.1315802
  -0.1299912   0.0719855   0.0555165   0.0000000   0.0000000   0.0000000
  -0.0495332  -0.1606023  -0.0558970  -0.4078698   0.5666607   0.3881074
   0.0840883  -0.4206719   0.2620823   0.0000000   0.0000000   0.0000000
  -0.0619050  -0.1697519   0.1308904   0.1024902   0.3081140   0.2102579
  -0.3859651  -0.4913490   0.4060559   0.0000000   0.0000000   0.0000000
   0.0436274   0.0913005   0.3106709   0.6393060   0.2581493   0.9536606
   0.8513578  -0.4030210   0.7163806   0.0000000   0.0000000   0.0000000
  -0.2024386  -0.1108536  -0.1223916  -1.2522450  -0.8923171   1.2756142
  -1.0466643  -0.6607469   0.7474289   0.0000000   0.0000000   0.0000000
  -0.2840987   0.2469260   0.1053863   0.3523596  -0.4307302   1.3906246
  -0.1287298  -0.3843363  -0.7424864   0.0000000   0.0000000   0.0000000
   0.1969325   0.0088726   0.1801786   0.3481899  -0.1670178   0.3615829
   0.3921928  -0.0503534  -0.1367368   0.0000000   0.0000000   0.0000000
   0.0014209   0.1600408   0.2646635   0.0527369   1.0622477  -0.5415964
  -0.2139360   0.2608366  -0.5260587   0.0000000   0.0000000   0.0000000
  -0.0402145  -0.0078139   0.0185696   0.3092056   0.2648783  -0.2473049
  -0.3259477   0.0439162   0.5214450   0.0000000   0.0000000   0.0000000
  -0.1111131  -0.0843703  -0.0483635  -0.0728661   0.6269083  -0.4894195
  -1.0554704   0.0385623  -0.5088389   0.0000000   0.0000000   0.0000000
   0.0242694   0.1258139   0.0478452  -0.5313040  -0.5359845  -0.1768443
  -0.1374603   0.6638852   0.1036501   0.0000000   0.0000000   0.0000000
   0.0876681   0.2318600   0.0494255   0.6238330   1.2011819  -0.4759073
  -0.6066390  -1.3635110   0.6566637   0.0000000   0.0000000   0.0000000
   0.0867267   0.3281564   0.2394112   0.2787864   0.3323652   0.2814238
   0.2963151   0.3264431   0.4153574   0.0000000   0.0000000   0.0000000
  -0.2577955   0.0511578   0.1160613  -0.5080738   0.1459907   0.3797743
  -0.0001469  -0.3960895   0.1658608   0.0000000   0.0000000   0.0000000
  -0.0695632  -0.1224129  -0.1431411  -0.1691561   0.1000324  -0.6027858
  -0.7343866  -0.4902897  -1.2770227   0.0000000   0.0000000   0.0000000
   0.0454676  -0.2956599   0.1750297  -0.3373571  -0.4837172  -0.3253476
  -0.1450745  -0.3761211  -0.2649801   0.0000000   0.0000000   0.0000000
  -0.0936328  -0.0301367  -0.0532895   0.1540751  -0.0862775   0.5275922
  -0.1999757  -0.7336799  -0.1987824   0.0000000   0.0000000   0.0000000
   0.0493203   0.1185955   0.0108727   1.4468710   1.0217400   0.2105708
  -0.1688284  -0.8514740  -0.4823905   0.0000000   0.0000000   0.0000000
  -0.3622276  -0.0508280   0.1234179   0.0126542   0.2298621   0.0862730
  -0.0559713   0.1052079   0.0438767   0.0000000   0.0000000   0.0000000
  -0.3621430  -0.2031845  -0.2587783  -0.6359017  -0.0193260  -0.0754733
   0.7626978  -0.0591764  -0.8184270   0.0000000   0.0000000   0.0000000
   0.1237191  -0.1017428   0.1402249   1.5611038   0.8404443   0.4331386
   0.5945842  -0.1232657  -1.5641141   0.0000000   0.0000000   0.0000000
   0.2416563  -0.2574491   0.0871464  -0.0271318   0.5011878  -0.2008231
   0.3536082  -0.5012667   0.0933377   0.0000000   0.0000000   0.0000000
   0.0730513   0.3433072   0.1431429  -0.3207331  -0.1443458  -0.5851822
   0.0919201   0.0974222   0.2218990   0.0000000   0.0000000   0.0000000
  -0.1441733   0.0547181  -0.0403352  -0.1466302   0.3113439  -0.2054453
   0.1005610   0.1251951   0.0405276   0.0000000   0.0000000   0.0000000
  -0.0283213  -0.1953258   0.0315066   1.0906907   0.2999611   0.1485896
   1.0915113   1.2028962  -0.6324132   0.0000000   0.0000000   0.0000000
   0.2976119   0.0074407   0.0722543   0.9160897  -1.1060730   0.0994854
  -0.0648052   0.0235588   0.6173768   0.0000000   0.0000000   0.0000000
   0.1101052  -0.0826707   0.0408068  -0.2059261  -0.0336443  -0.1992473
   0.0238103   0.1628103   0.8435380   0.0000000   0.0000000   0.0000000
   0.0443422   0.2821089   0.1766481  -0.0836819   0.0628183   0.2093982
   0.3708776   0.3571585   0.5357523   0.0000000   0.0000000   0.0000000
  -0.3082419   0.2184072   0.0476194  -0.8338937   0.0810829  -0.0668839
  -0.3197939   0.7843669   0.2427445   0.0000000   0.0000000   0.0000000
   0.0794602  -0.0816795   0.4625412  -0.5261880   0.4275912   0.2432908
   0.5582990   0.5473601   0.3327543   0.0000000   0.0000000   0.0000000
  -0.1264192   0.0101156  -0.3276580  -0.0534117  -0.0591066  -0.0535291
  -0.0437261  -0.0204924  -0.2145311   0.0000000   0.0000000   0.0000000
  -0.0984915  -0.0585517   0.2138709   0.1518233   0.3916561  -0.9725918
   0.7579344  -0.9725187   0.6126383   0.0000000   0.0000000   0.0000000
  -0.1703725  -0.2804939  -0.0195822  -0.5951600  -0.7691225   0.8063169
  -0.0257708   0.1254024  -0.4236303   0.0000000   0.0000000   0.0000000
  -0.1809126  -0.1124846   0.0829895  -0.2575970  -0.1084241   0.0405572
   0.4134756   0.2646117   0.7404196   0.0000000   0.0000000   0.0000000
   0.3057920   0.0089674  -0.0418895  -0.5473527   0.1103071  -0.1777634
   1.0643993  -0.3970239   0.4592012   0.0000000   0.0000000   0.0000000
   0.0904492   0.0109946   0.0934791  -0.2389935   0.1962268  -0.0579374
   0.2758383   0.8488807  -0.1246119   0.0000000   0.0000000   0.0000000
  -0.1285825   0.0420688  -0.0513163  -0.6020186   0.8486024   0.1643118
   0.4726223  -0.8767460   0.5422521   0.0000000   0.0000000   0.0000000
   0.1490065  -0.2452452   0.1397420   0.7647279   0.5729221  -0.0417030
  -0.2807520  -0.2777561  -0.1576634   0.0000000   0.0000000   0.0000000
   0.1081923   0.1641091   0.0745677   0.0659516   0.4486211   0.0313484
   0.1398102   0.2493655   0.0688488   0.0000000   0.0000000   0.0000000
   0.5605837  -0.0071071  -0.0403526   0.5838282   0.5343306  -1.3417155
  -0.5278547   0.0881769   0.3344638   0.0000000   0.0000000   0.0000000
  -0.0887955  -0.0267902  -0.1027947  -0.5754998   0.0863090  -0.0427183
  -0.4206049   0.3349408   0.0683863   0.0000000   0.0000000   0.0000000
  -0.1366554  -0.2968489  -0.1579830  -0.0231642  -0.4846360  -0.1205449
  -0.6476875   0.4918817  -1.1221731   0.0000000   0.0000000   0.0000000
  -0.0310641   0.0784257   0.1051015   0.5439148  -0.3653323  -0.2743806
   0.1216039   0.5657663   0.4140188   0.0000000   0.0000000   0.0000000
   0.1458608  -0.1806926   0.0028586  -0.6203167  -0.0505811  -0.3816756
  -0.3802722  -0.2163811   0.4685762   0.0000000   0.0000000   0.0000000
  -0.3020379   0.0838534  -0.1184550  -0.1918094  -0.8648663   0.7856206
  -0.8658268  -0.6413534  -0.1887067   0.0000000   0.0000000   0.0000000
  -0.0477887   0.0412343   0.1167692  -0.0033504   0.1840397   0.2856065
  -0.4370647   0.2776064   0.2366922   0.0000000   0.0000000   0.0000000
  -0.1300869  -0.2346011  -0.1844557   0.3621632  -0.5938100   0.1096396
  -1.1016850  -0.9996771  -1.2791411   0.0000000   0.0000000   0.0000000
  -0.0090763   0.1794539   0.1910180  -0.4373587  -0.3638641   0.0771895
  -0.6407059   0.9061060   0.2664010   0.0000000   0.0000000   0.0000000
  -0.0268838   0.0516515  -0.1425068   0.1920526  -1.2561212  -0.3183130
  -0.1062776   1.1457218   0.2125308   0.0000000   0.0000000   0.0000000
  -0.2213429   0.2043627   0.0338705   0.2223624  -0.3903486  -1.1496938
  -0.3733401   0.4488981   0.5552399   0.0000000   0.0000000   0.0000000
   0.0894097   0.1522086  -0.0908026  -0.1927439   0.6426089  -0.3276730
  -0.3525438   0.2899671  -0.1935085   0.0000000   0.0000000   0.0000000
   0.1570118   0.2305511  -0.0283733  -0.1987216   0.3150559  -0.6805795
   0.5778244   0.0138261   0.4549997   0.0000000   0.0000000   0.0000000
   0.0503899   0.2788568   0.0438779  -0.0257879  -0.5671615   0.8391703
   0.5283075   0.3014516  -1.2656090   0.0000000   0.0000000   0.0000000
  -0.0765650  -0.0440452  -0.2481079   0.3510211   0.3046184  -0.3183011
   0.4347502  -0.0994775  -0.2377645   0.0000000   0.0000000   0.0000000
  -0.1063274   0.0453883   0.0670419   0.3140510   0.2759018  -0.1229096
  -1.2164415   0.9731413  -0.6358762   0.0000000   0.0000000   0.0000000
  -0.0235576   0.0264947  -0.4606836   0.2836535   0.7356130  -0.5279935
   0.6790420  -0.3542303  -0.2103707   0.0000000   0.0000000   0.0000000
  -0.5500226  -0.0068420   0.0929478  -0.4749258   0.3481302   0.3357351
  -0.8335047   0.1095202  -0.4679198   0.0000000   0.0000000   0.0000000
   0.2191066   0.2546403   0.1336289  -0.5236410  -1.1102249  -0.2807383
  -0.3329338   0.2443183  -0.2386788   0.0000000   0.0000000   0.0000000
  -0.0392319   0.1527505  -0.0485251  -1.2862697  -0.4540960  -0.9474951
   0.8302354   0.6108057  -1.0079029   0.0000000   0.0000000   0.0000000
  -0.1931049   0.0703713  -0.0099670   0.8007748  -0.6845739   0.3600768
  -0.5809142   0.1434846   0.7423869   0.0000000   0.0000000   0.0000000
   0.1853576  -0.0899143  -0.1917237   0.5872273   0.5926908  -1.2203370
   0.6127030  -1.0048405  -0.4816699   0.0000000   0.0000000   0.0000000
   0.0116468  -0.2797122  -0.1896811   0.0028343  -1.1295758  -0.6854108
  -0.0498610  -0.2960680  -0.5832389   0.0000000   0.0000000   0.0000000
   0.2082852  -0.2109806  -0.2483302   0.1125823  -0.8800431  -0.2138234
   0.4929130  -0.7120795   0.3689232   0.0000000   0.0000000   0.0000000
  -0.2001313   0.1235655   0.2743641   0.0083192  -1.2922898  -1.1523411
   0.3078611   0.4587802   0.7931399   0.0000000   0.0000000   0.0000000
   0.0207174   0.1909788   0.0873695  -0.3751434  -0.2467472   0.0377610
  -0.3907814   0.6191911   0.1636611   0.0000000   0.0000000   0.0000000
  -0.0545719   0.0899138  -0.3464763  -0.7397868  -1.5127834   0.6221880
  -0.0644174  -0.9693686  -0.3665667   0.0000000   0.0000000   0.0000000
  -0.1386635   0.1174434  -0.0456591   0.2368251   0.2769142   0.1563432
  -0.2132118  -0.2844651   0.4878013   0.0000000   0.0000000   0.0000000
   0.1025899   0.3511899  -0.0975558  -1.0255915   0.1921683  -0.3034728
  -0.2835874   0.0475396  -0.3873337   0.0000000   0.0000000   0.0000000
   0.2941883   0.1646840  -0.0029382  -0.2917798   0.2997276  -0.3664614
   0.1254678   0.4552840  -0.5668807   0.0000000   0.0000000   0.0000000
  -0.2500457  -0.1125214  -0.2769727  -0.9433491   0.4684038  -1.2863250
  -0.5066860  -0.1159701   0.8709856   0.0000000   0.0000000   0.0000000
   0.1122942   0.2709753   0.0899088   0.2500686  -0.4695947   0.2262030
  -0.3915238   0.5009070  -0.4436449   0.0000000   0.0000000   0.0000000
  -0.3320801   0.4287920   0.1027317  -0.7089998   0.4135776  -0.2192717
  -1.0746937   0.7789338   0.3387527   0.0000000   0.0000000   0.0000000
  -0.0329976  -0.2061539  -0.1726175   0.2963784  -0.4019800  -0.3138075
  -1.4945283   0.7802901   0.4611179   0.0000000   0.0000000   0.0000000
  -0.0670632  -0.0639766  -0.0047540  -0.2733855  -0.4892356   0.7183848
  -0.1194698  -0.1273542  -0.0524883   0.0000000   0.0000000   0.0000000
   0.2030525  -0.2903629  -0.1392954   0.1762177   1.7304857   0.0193275
   0.2931118  -0.6812648   0.7015877   0.0000000   0.0000000   0.0000000
   0.0940517   0.1519465  -0.0023550  -0.3216673  -0.7073454   0.6646565
   0.5616883   0.7205707  -0.6447861   0.0000000   0.0000000   0.0000000
   0.0956315   0.1276231   0.1649041   0.0933998  -0.0181782  -0.7490764
   0.3574694  -0.0339392   0.8993181   0.0000000   0.0000000   0.0000000
   0.1879679  -0.0424050  -0.0806628  -0.5650892  -0.5628271   0.0221691
  -0.2563678  -0.1944931   0.3328848   0.0000000   0.0000000   0.0000000
  -0.0750244  -0.1716739   0.2888349   1.1105532   0.9244781   0.0005183
   0.3036273  -0.2655303   1.0714612   0.0000000   0.0000000   0.0000000
  -0.1516498   0.0331006  -0.0749556  -0.2924255  -0.5469227  -0.4651491
  -0.7771750   0.0600915   0.5783527   0.0000000   0.0000000   0.0000000
  -0.4411640  -0.0878037   0.1074155  -0.2578726  -0.2117291  -0.2637591
  -0.3255943  -0.0327966   0.8443348   0.0000000   0.0000000   0.0000000
   0.2191306   0.0967169  -0.1049433  -0.7415616  -0.0221484  -1.3587996
   1.0612354   0.0529667   0.1292591   0.0000000   0.0000000   0.0000000
  -0.3661672   0.0334068   0.0450801  -0.1370018  -0.7747393   0.0106706
  -0.7017243   0.8407029   0.3154686   0.0000000   0.0000000   0.0000000
   0.0929325  -0.2826811   0.4241667  -0.2547025   0.0489732  -0.6679003
   0.2080334  -0.6382124   0.3288957   0.0000000   0.0000000   0.0000000
   0.2713550   0.2614943  -0.1538450  -0.2062968   0.1182384  -0.0531221
   0.2731314   0.1018508  -0.6107189   0.0000000   0.0000000   0.0000000
   0.1409759   0.2613626  -0.1077539  -0.4655215  -0.0094819   0.0974220
  -0.4795041   0.2294099  -0.5664190   0.0000000   0.0000000   0.0000000
  -0.3062709   0.0708703   0.0937681  -0.1508550  -0.8188184   1.2045286
  -0.8533488   0.6647410   1.9292496   0.0000000   0.0000000   0.0000000
  -0.1733529  -0.1275386  -0.2668449   0.2422110   0.0482555   0.2219962
  -0.4818600   0.4009424  -0.5688698   0.0000000   0.0000000   0.0000000
  -0.0725554  -0.0415895  -0.2093994  -0.3524057  -1.1828094  -0.6100485
  -1.3765104  -0.5538910   1.4284516   0.0000000   0.0000000   0.0000000
   0.1381178   0.3044958  -0.1292837  -0.4758045   0.4458573  -0.4978720
   0.3169639   0.4869685   0.3309639   0.0000000   0.0000000   0.0000000
   0.1206858  -0.0838732  -0.1181882   0.4533610  -0.0066755   0.4047249
  -1.3640427   0.4817182  -0.5334991   0.0000000   0.0000000   0.0000000
   0.0783570   0.1370444  -0.2695296  -0.0974992  -0.7323646   0.0226425
   0.2769970  -0.2971489  -0.2599936   0.0000000   0.0000000   0.0000000
   0.0807018  -0.0918185   0.1659309  -0.3328891   1.0037761  -1.2363244
  -0.3686878  -0.4583970   0.8129523   0.0000000   0.0000000   0.0000000
   0.2753151   0.0066129  -0.0054793   0.5871653  -0.6597770   0.3670930
  -0.1348581   0.5500913   0.3782981   0.0000000   0.0000000   0.0000000
  -0.3251693   0.2758927  -0.1685358  -0.5899556   0.1441020   0.3011847
  -0.7217496   0.1281078  -0.6427213   0.0000000   0.0000000   0.0000000
  -0.0937471   0.3115334   0.0340144  -0.3659614  -0.3020672  -0.1916445
  -0.1362863   0.0808813  -0.1807784   0.0000000   0.0000000   0.0000000
  -0.3844219  -0.1745857  -0.1207508  -0.5479015  -0.1913185  -0.9582855
   0.1565514  -0.2783045   1.6099098   0.0000000   0.0000000   0.0000000
   0.0698880   0.2495342  -0.2953575   0.1059347   0.3384826  -0.1437582
   0.0541694   0.3259138  -0.2468511   0.0000000   0.0000000   0.0000000
  -0.1879664  -0.2496312   0.0966392   0.4326909  -0.2579327   0.1404992
  -0.6553465  -0.6191565   0.1644948   0.0000000   0.0000000   0.0000000
   0.0335127  -0.2305153  -0.2090184   0.7424212   1.2591135  -0.6031263
   0.7829441   0.5154429  -0.3134269   0.0000000   0.0000000   0.0000000
   0.0280974   0.0536503   0.0928459   0.3448415   0.7106285  -0.2704020
  -0.3141235   0.1497906   0.3556400   0.0000000   0.0000000   0.0000000
   0.1694082   0.2954942   0.1676618  -0.5596591   0.2865474   0.4169559
   0.2405181   0.6371049   0.0837315   0.0000000   0.0000000   0.0000000
   0.1281145  -0.2850699  -0.0209595   0.2385436  -0.3775527   0.5154797
   0.0101626  -0.6937008  -0.3069098   0.0000000   0.0000000   0.0000000
  -0.1173641   0.0200296   0.0324326   0.4634978  -0.2053177  -0.9274843
  -0.5386815   0.3837445  -0.3984055   0.0000000   0.0000000   0.0000000
  -0.0347318   0.2594795   0.0878848  -0.7882143   0.5755693  -0.1805663
  -0.2328092  -0.3050532  -0.0850955   0.0000000   0.0000000   0.0000000
  -0.3167903   0.2168655   0.0676203  -0.3478211   0.5223932  -0.1333603
  -0.7788792   0.2306555  -0.0927904   0.0000000   0.0000000   0.0000000
   0.1271594  -0.1010917   0.0822165   0.9370875  -0.4739977   0.0874487
   0.0031380   0.0363205  -0.5319577   0.0000000   0.0000000   0.0000000
  -0.1084502  -0.1690400  -0.0500152  -0.3273349  -0.6120199   0.8362633
  -0.2770309  -0.6575111   0.2384147   0.0000000   0.0000000   0.0000000
  -0.0314215   0.0642015  -0.0645428  -0.3065792  -0.2897981   0.3378044
   0.9508275   1.1032512  -1.1816610   0.0000000   0.0000000   0.0000000
  -0.4116685   0.0885096   0.0723042  -0.3852972   0.0505115   0.3412940
   0.6160911  -0.7634105   0.4844792   0.0000000   0.0000000   0.0000000
   0.3009099  -0.0697775   0.0428929   0.4063966  -0.4386086  -0.3083975
  -0.3993240   0.1743990  -0.0971153   0.0000000   0.0000000   0.0000000
   0.0363734  -0.2439525   0.2174073  -0.5114563  -0.5214876  -0.0666465
  -0.5164312  -0.2977202   0.1936151   0.0000000   0.0000000   0.0000000
   0.0498430   0.0239042  -0.1808287  -0.6388071   0.3985112  -0.2149056
   0.1056700   0.2333563  -0.0793145   0.0000000   0.0000000   0.0000000
   0.1144271  -0.0014641  -0.0991550   0.2852776  -0.1178666  -0.0746029
   0.4976443  -0.2105524  -0.0074652   0.0000000   0.0000000   0.0000000
   0.1493769  -0.1457192  -0.1272367   0.6593760   0.1206537   0.6616739
   0.2420309   0.0313281  -0.1698194   0.0000000   0.0000000   0.0000000
   0.0493175   0.4099662  -0.0068306   0.2621943   0.5642016   0.4683687
   0.0474208   0.7127515  -0.8822938   0.0000000   0.0000000   0.0000000
   0.0903137   0.1638946  -0.1070624   0.7321399   0.3462503   0.1070554
  -1.0209525  -0.5570258  -0.2675977   0.0000000   0.0000000   0.0000000
  -0.1392555  -0.2464709  -0.0876531  -0.7737057  -0.4641888  -0.8916159
   0.6090203  -0.0911738   0.5395153   0.0000000   0.0000000   0.0000000
   0.0260779   0.0994799   0.1873668  -0.2321137  -0.3263320  -0.1977474
   0.2641483  -1.0042528   0.9932301   0.0000000   0.0000000   0.0000000
  -0.0560879  -0.0853238   0.0786058   0.1864802  -0.7380861  -0.0551901
  -0.1110616  -0.7283979  -0.1463061   0.0000000   0.0000000   0.0000000
   0.0484699  -0.3001249   0.0519732  -0.2168633  -0.1287158   0.5732963
  -0.2138595   0.9607652   0.2349397   0.0000000   0.0000000   0.0000000
  -0.1272032   0.0924103  -0.1897706  -0.1782713   0.2963044  -0.1857194
   0.1580764  -0.4320617  -0.4065500   0.0000000   0.0000000   0.0000000
  -0.0833974   0.3229498  -0.1312074  -0.6252467  -0.3044341  -0.0743266
  -0.1741105   0.2238673   0.2592099   0.0000000   0.0000000   0.0000000
   0.0793381  -0.1369761  -0.3022546   0.3617521   0.2774754   0.5602749
  -0.0862192  -0.2689394  -0.5954820   0.0000000   0.0000000   0.0000000
   0.1351126  -0.1248448   0.0968712  -0.0991858  -0.9774053  -0.4877052
   0.4413719   0.9614441   0.2186781   0.0000000   0.0000000   0.0000000
   0.1972990   0.2516136  -0.4350791  -0.0688874   1.0992761   0.4108968
  -0.3337548  -0.0529266   1.1200719   0.0000000   0.0000000   0.0000000
  -0.1181270  -0.1775835  -0.0838403   0.4876331  -0.9176029  -1.0943706
  -0.0428678   0.1785071   0.1573493   0.0000000   0.0000000   0.0000000
  -0.0702385  -0.2315623  -0.1801791  -0.0265538  -0.3743434  -0.5987768
  -0.1025548  -0.4091040  -0.5196997   0.0000000   0.0000000   0.0000000
   0.2587807  -0.2540705  -0.0638845   0.0981889  -0.5385663  -0.1640734
   0.0128638   0.1044233  -0.0774573   0.0000000   0.0000000   0.0000000
   0.1803395   0.1592851  -0.0296125  -0.0504615   0.6492941  -0.2538594
   0.6735746   0.4778062   0.2236216   0.0000000   0.0000000   0.0000000
   0.3078162  -0.0603250   0.3286698   0.3831897  -0.0341322   0.5367677
   0.3305795  -0.0159285   0.0967936   0.0000000   0.0000000   0.0000000
  -0.0495263   0.1509157   0.1108009   0.4324737   0.4111838   0.0950640
  -0.0429401  -0.4518278   0.1274104   0.0000000   0.0000000   0.0000000
  -0.0767609   0.0911668   0.1098490  -0.0897292  -0.1413182   0.0732797
  -0.3216683   0.4323907   0.3412666   0.0000000   0.0000000   0.0000000
  -0.1785755  -0.4523180  -0.0424699  -1.8238250  -0.0221456   0.2542716
   0.2219866  -0.8162485  -0.4639341   0.0000000   0.0000000   0.0000000
   0.1326138  -0.2092229  -0.2193672   0.3148572  -0.4432342  -0.1396430
   0.8638923  -0.2351990  -0.1317767   0.0000000   0.0000000   0.0000000
  -0.1163588  -0.1069719   0.0559252  -0.9161244  -0.2977878   0.2305535
  -0.1194796   0.6278426  -0.1144308   0.0000000   0.0000000   0.0000000
   0.4093158   0.0998539   0.0596033  -0.0776489  -0.1442329  -0.0868069
   0.7951276  -0.3276662  -0.0622443   0.0000000   0.0000000   0.0000000
  -0.1971409  -0.1404551  -0.1086688   1.7750039  -0.7435393  -0.5273642
  -0.4537829  -0.0890254  -0.0666861   0.0000000   0.0000000   0.0000000
   0.0144105  -0.0347793  -0.1887918  -0.2024029  -0.0799626  -0.0494861
   0.3361222   0.9566282  -0.8296478   0.0000000   0.0000000   0.0000000
   0.0200090   0.1613427   0.0672676   0.0472860   0.1155488   0.1255398
   0.0578255   0.2789835  -0.2208446   0.0000000   0.0000000   0.0000000
   0.3706234  -0.3566544  -0.1338643  -0.2652801   0.5232680  -0.3261606
   0.7572220  -0.5654377  -0.3583651   0.0000000   0.0000000   0.0000000
  -0.2817520  -0.0603224   0.3414089  -1.3402927  -0.2385106   0.4131970
  -0.5325582   0.1456710  -0.3075462   0.0000000   0.0000000   0.0000000
   0.0216098   0.3240309   0.0652604   0.3342213  -0.6575346   0.6419391
  -0.6644849   0.2665785   0.5788760   0.0000000   0.0000000   0.0000000
   0.0152381   0.2434845  -0.2776075  -0.7684322   0.0662081  -0.4549479
  -1.0027844   0.5140911  -1.1217998   0.0000000   0.0000000   0.0000000
   0.3197532   0.1360395   0.0572535   0.4825967   0.2230757  -0.2922924
   0.1605634  -0.3956620   0.4958420   0.0000000   0.0000000   0.0000000
   0.0339950  -0.2326029   0.0235038   0.4918898  -1.2411090  -0.2606124
  -0.4150173   0.5449416  -0.2309033   0.0000000   0.0000000   0.0000000
  -0.1861918   0.0882124   0.2386316  -0.5837311   0.8318651   0.1034739
   0.2459559  -0.7566622   0.4396059   0.0000000   0.0000000   0.0000000
   0.0776592  -0.2013932  -0.3921936  -0.1220821   0.3260539   0.2182763
  -0.3974043  -0.6364742  -0.8623241   0.0000000   0.0000000   0.0000000
  -0.3307480   0.0714634   0.2899004   0.6891405   1.3317869  -0.1697473
  -0.6347171   0.0626458   1.0467627   0.0000000   0.0000000   0.0000000
  -0.2136275  -0.1729265  -0.0457381   0.0230593  -0.5701189   0.8511813
   0.2400347  -0.0255119  -0.0330372   0.0000000   0.0000000   0.0000000
   0.0102565  -0.1189509  -0.2077278   1.9057075   1.0747532   0.4252216
   0.4568845  -0.6082328   0.0131725   0.0000000   0.0000000   0.0000000
   0.0177581   0.2071973  -0.0198993   0.0607845   0.6185619   0.2427920
   0.9684777  -0.1458706   1.1184165   0.0000000   0.0000000   0.0000000
   0.1419401   0.0026593   0.1000940   0.7864573   0.3671866  -0.2867004
  -0.1174844  -0.2490029  -0.6623019   0.0000000   0.0000000   0.0000000
   0.2134038  -0.0487871  -0.1826970   0.7766611  -1.0848592   0.0946266
   0.1328580  -0.0103603  -0.1732730   0.0000000   0.0000000   0.0000000
   0.0205685   0.2149619  -0.3604371  -0.8641127   0.0550584   0.1783230
  -0.6162080  -0.4957208   0.0258738   0.0000000   0.0000000   0.0000000
  38.7498841  36.3604465  41.0570439  90.0000000  90.0000000  90.0000000
