%VERSION  VERSION_STAMP = V0001.000  DATE = 09/13/26  05:10:37
%FLAG TITLE
%FORMAT(20a4)
default_name
%FLAG POINTERS
%FORMAT(10I8)
    7686      27    5704    1968     230     138     422     356       0       0
   14179    1893    1968     138     356      67     131     104      46       0
       0       0       0       0       0       0       0       1      39       0
    1867
%FLAG ATOM_NAME
%FORMAT(20a4)
N   H1  H2  H3  CA  HA  CB  HB2 HB3 OG  HG  C   O   N   H   CA  HA  CB  HB2 HB3 
CG  HG  CD1 HD11HD12HD13CD2 HD21HD22HD23C   O   N   H   CA  HA  CB  HB1 HB2 HB3 
C   O   N   H   CA  HA  CB  HB2 HB3 CG  ND1 CE1 HE1 NE2 HE2 CD2 HD2 C   O   N   
H   CA  HA  CB  HB2 HB3 OG  HG  C   O   OXT N   H1  H2  H3  CA  HA  CB  HB2 HB3 
CG  HG  CD1 HD11HD12HD13CD2 HD21HD22HD23C   O   N   H   CA  HA  CB  HB  CG1 HG11
HG12HG13CG2 HG21HG22HG23C   O   N   H   CA  HA  CB  HB  CG2 HG21HG22HG23OG1 HG1 
C   O   N   H   CA  HA  CB  HB2 HB3 CG  HG2 HG3 CD  HD2 HD3 CE  HE2 HE3 NZ  HZ1 
HZ2 HZ3 C   O   N   H   CA  HA  CB  HB2 HB3 CG  HG  CD1 HD11HD12HD13CD2 HD21HD22
HD23C   O   OXT C1  S1  C2  C3  C4  C5  C6  C7  C8  S2  O1  O2  C9  N1  C10 O3  
N2  H1  H2  C11 C12 C13 C14 C15 C16 Br1 H3  H4  H5  H6  H7  H8  H9  H10 H11 H12 
H13 H14 H15 Cl- Na+ Na+ Na+ Na+ Na+ Na+ Na+ Cl- Cl- Cl- Cl- Cl- Cl- Cl- O   H1  
H2  EPW O   H1  H2  EPW O   H1  H2  EPW O   H1  H2  EPW O   H1  H2  EPW O   H1  
H2  EPW O   H1  H2  EPW O   H1  H2  EPW O   H1  H2  EPW O   H1  H2  EPW O   H1  
H2  EPW O   H1  H2  EPW O   H1  H2  EPW O   H1  H2  EPW O   H1  H2  EPW O   H1  
H2  EPW O   H1  H2  EPW O   H1  H2  EPW O   H1  H2  EPW O   H1  H2  EPW O   H1  
H2  EPW O   H1  H2  EPW O   H1  H2  EPW O   H1  H2  EPW O   H1  H2  EPW O   H1  
H2  EPW O   H1  H2  EPW O   H1  H2  EPW O   H1  H2  EPW O   H1  H2  EPW O   H1  
H2  EPW O   H1  H2  EPW O   H1  H2  EPW O   H1  H2  EPW O   H1  H2  EPW O   H1  
H2  EPW O   H1  H2  EPW O   H1  H2  EPW O   H1  H2  EPW O   H1  H2  EPW O   H1  
H2  EPW O   H1  H2  EPW O   H1  H2  EPW O   H1  H2  EPW O   H1  H2  EPW O   H1  
H2  EPW O   H1  H2  EPW O   H1  H2  EPW O   H1  H2  EPW O   H1  H2  EPW O   H1  
H2  EPW O   H1  H2  EPW O   H1  H2  EPW O   H1  H2  EPW O   H1  H2  EPW O   H1  
H2  EPW O   H1  H2  EPW O   H1  H2  EPW O   H1  H2  EPW O   H1  H2  EPW O   H1  
H2  EPW O   H1  H2  EPW O   H1  H2  EPW O   H1  H2  EPW O   H1  H2  EPW O   H1  
H2  EPW O   H1  H2  EPW O   H1  H2  EPW O   H1  H2  EPW O   H1  H2  EPW O   H1  
H2  EPW O   H1  H2  EPW O   H1  H2  EPW O   H1  H2  EPW O   H1  H2  EPW O   H1  
H2  EPW O   H1  H2  EPW O   H1  H2  EPW O   H1  H2  EPW O   H1  H2  EPW O   H1  
H2  EPW O   H1  H2  EPW O   H1  H2  EPW O   H1  H2  EPW O   H1  H2  EPW O   H1  
H2  EPW O   H1  H2  EPW O   H1  H2  EPW O   H1  H2  EPW O   H1  H2  EPW O   H1  
H2  EPW O   H1  H2  EPW O   H1  H2  EPW O   H1  H2  EPW O   H1  H2  EPW O   H1  
H2  EPW O   H1  H2  EPW O   H1  H2  EPW O   H1  H2  EPW O   H1  H2  EPW O   H1  
H2  EPW O   H1  H2  EPW O   H1  H2  EPW O   H1  H2  EPW O   H1  H2  EPW O   H1  
H2  EPW O   H1  H2  EPW O   H1  H2  EPW O   H1  H2  EPW O   H1  H2  EPW O   H1  
H2  EPW O   H1  H2  EPW O   H1  H2  EPW O   H1  H2  EPW O   H1  H2  EPW O   H1  
H2  EPW O   H1  H2  EPW O   H1  H2  EPW O   H1  H2  EPW O   H1  H2  EPW O   H1  
H2  EPW O   H1  H2  EPW O   H1  H2  EPW O   H1  H2  EPW O   H1  H2  EPW O   H1  
H2  EPW O   H1  H2  EPW O   H1  H2  EPW O   H1  H2  EPW O   H1  H2  EPW O   H1  
H2  EPW O   H1  H2  EPW O   H1  H2  EPW O   H1  H2  EPW O   H1  H2  EPW O   H1  
H2  EPW O   H1  H2  EPW O   H1  H2  EPW O   H1  H2  EPW O   H1  H2  EPW O   H1  
H2  EPW O   H1  H2  EPW O   H1  H2  EPW O   H1  H2  EPW O   H1  H2  EPW O   H1  
H2  EPW O   H1  H2  EPW O   H1  H2  EPW O   H1  H2  EPW O   H1  H2  EPW O   H1  
H2  EPW O   H1  H2  EPW O   H1  H2  EPW O   H1  H2  EPW O   H1  H2  EPW O   H1  
H2  EPW O   H1  H2  EPW O   H1  H2  EPW O   H1  H2  EPW O   H1  H2  EPW O   H1  
H2  EPW O   H1  H2  EPW O   H1  H2  EPW O   H1  H2  EPW O   H1  H2  EPW O   H1  
H2  EPW O   H1  H2  EPW O   H1  H2  EPW O   H1  H2  EPW O   H1  H2  EPW O   H1  
H2  EPW O   H1  H2  EPW O   H1  H2  EPW O   H1  H2  EPW O   H1  H2  EPW O   H1  
H2  EPW O   H1  H2  EPW O   H1  H2  EPW O   H1  H2  EPW O   H1  H2  EPW O   H1  
H2  EPW O   H1  H2  EPW O   H1  H2  EPW O   H1  H2  EPW O   H1  H2  EPW O   H1  
H2  EPW O   H1  H2  EPW O   H1  H2  EPW O   H1  H2  EPW O   H1  H2  EPW O   H1  
H2  EPW O   H1  H2  EPW O   H1  H2  EPW O   H1  H2  EPW O   H1  H2  EPW O   H1  
H2  EPW O   H1  H2  EPW O   H1  H2  EPW O   H1  H2  EPW O   H1  H2  EPW O   H1  
H2  EPW O   H1  H2  EPW O   H1  H2  EPW O   H1  H2  EPW O   H1  H2  EPW O   H1  
H2  EPW O   H1  H2  EPW O   H1  H2  EPW O   H1  H2  EPW O   H1  H2  EPW O   H1  
H2  EPW O   H1  H2  EPW O   H1  H2  EPW O   H1  H2  EPW O   H1  H2  EPW O   H1  
H2  EPW O   H1  H2  EPW O   H1  H2  EPW O   H1  H2  EPW O   H1  H2  EPW O   H1  
H2  EPW O   H1  H2  EPW O   H1  H2  EPW O   H1  H2  EPW O   H1  H2  EPW O   H1  
H2  EPW O   H1  H2  EPW O   H1  H2  EPW O   H1  H2  EPW O   H1  H2  EPW O   H1  
H2  EPW O   H1  H2  EPW O   H1  H2  EPW O   H1  H2  EPW O   H1  H2  EPW O   H1  
H2  EPW O   H1  H2  EPW O   H1  H2  EPW O   H1  H2  EPW O   H1  H2  EPW O   H1  
H2  EPW O   H1  H2  EPW O   H1  H2  EPW O   H1  H2  EPW O   H1  H2  EPW O   H1  
H2  EPW O   H1  H2  EPW O   H1  H2  EPW O   H1  H2  EPW O   H1  H2  EPW O   H1  
H2  EPW O   H1  H2  EPW O   H1  H2  EPW O   H1  H2  EPW O   H1  H2  EPW O   H1  
H2  EPW O   H1  H2  EPW O   H1  H2  EPW O   H1  H2  EPW O   H1  H2  EPW O   H1  
H2  EPW O   H1  H2  EPW O   H1  H2  EPW O   H1  H2  EPW O   H1  H2  EPW O   H1  
H2  EPW O   H1  H2  EPW O   H1  H2  EPW O   H1  H2  EPW O   H1  H2  EPW O   H1  
H2  EPW O   H1  H2  EPW O   H1  H2  EPW O   H1  H2  EPW O   H1  H2  EPW O   H1  
H2  EPW O   H1  H2  EPW O   H1  H2  EPW O   H1  H2  EPW O   H1  H2  EPW O   H1  
H2  EPW O   H1  H2  EPW O   H1  H2  EPW O   H1  H2  EPW O   H1  H2  EPW O   H1  
H2  EPW O   H1  H2  EPW O   H1  H2  EPW O   H1  H2  EPW O   H1  H2  EPW O   H1  
H2  EPW O   H1  H2  EPW O   H1  H2  EPW O   H1  H2  EPW O   H1  H2  EPW O   H1  
H2  EPW O   H1  H2  EPW O   H1  H2  EPW O   H1  H2  EPW O   H1  H2  EPW O   H1  
H2  EPW O   H1  H2  EPW O   H1  H2  EPW O   H1  H2  EPW O   H1  H2  EPW O   H1  
H2  EPW O   H1  H2  EPW O   H1  H2  EPW O   H1  H2  EPW O   H1  H2  EPW O   H1  
H2  EPW O   H1  H2  EPW O   H1  H2  EPW O   H1  H2  EPW O   H1  H2  EPW O   H1  
H2  EPW O   H1  H2  EPW O   H1  H2  EPW O   H1  H2  EPW O   H1  H2  EPW O   H1  
H2  EPW O   H1  H2  EPW O   H1  H2  EPW O   H1  H2  EPW O   H1  H2  EPW O   H1  
H2  EPW O   H1  H2  EPW O   H1  H2  EPW O   H1  H2  EPW O   H1  H2  EPW O   H1  
H2  EPW O   H1  H2  EPW O   H1  H2  EPW O   H1  H2  EPW O   H1  H2  EPW O   H1  
H2  EPW O   H1  H2  EPW O   H1  H2  EPW O   H1  H2  EPW O   H1  H2  EPW O   H1  
H2  EPW O   H1  H2  EPW O   H1  H2  EPW O   H1  H2  EPW O   H1  H2  EPW O   H1  
H2  EPW O   H1  H2  EPW O   H1  H2  EPW O   H1  H2  EPW O   H1  H2  EPW O   H1  
H2  EPW O   H1  H2  EPW O   H1  H2  EPW O   H1  H2  EPW O   H1  H2  EPW O   H1  
H2  EPW O   H1  H2  EPW O   H1  H2  EPW O   H1  H2  EPW O   H1  H2  EPW O   H1  
H2  EPW O   H1  H2  EPW O   H1  H2  EPW O   H1  H2  EPW O   H1  H2  EPW O   H1  
H2  EPW O   H1  H2  EPW O   H1  H2  EPW O   H1  H2  EPW O   H1  H2  EPW O   H1  
H2  EPW O   H1  H2  EPW O   H1  H2  EPW O   H1  H2  EPW O   H1  H2  EPW O   H1  
H2  EPW O   H1  H2  EPW O   H1  H2  EPW O   H1  H2  EPW O   H1  H2  EPW O   H1  
H2  EPW O   H1  H2  EPW O   H1  H2  EPW O   H1  H2  EPW O   H1  H2  EPW O   H1  
H2  EPW O   H1  H2  EPW O   H1  H2  EPW O   H1  H2  EPW O   H1  H2  EPW O   H1  
H2  EPW O   H1  H2  EPW O   H1  H2  EPW O   H1  H2  EPW O   H1  H2  EPW O   H1  
H2  EPW O   H1  H2  EPW O   H1  H2  EPW O   H1  H2  EPW O   H1  H2  EPW O   H1  
H2  EPW O   H1  H2  EPW O   H1  H2  EPW O   H1  H2  EPW O   H1  H2  EPW O   H1  
H2  EPW O   H1  H2  EPW O   H1  H2  EPW O   H1  H2  EPW O   H1  H2  EPW O   H1  
H2  EPW O   H1  H2  EPW O   H1  H2  EPW O   H1  H2  EPW O   H1  H2  EPW O   H1  
H2  EPW O   H1  H2  EPW O   H1  H2  EPW O   H1  H2  EPW O   H1  H2  EPW O   H1  
H2  EPW O   H1  H2  EPW O   H1  H2  EPW O   H1  H2  EPW O   H1  H2  EPW O   H1  
H2  EPW O   H1  H2  EPW O   H1  H2  EPW O   H1  H2  EPW O   H1  H2  EPW O   H1  
H2  EPW O   H1  H2  EPW O   H1  H2  EPW O   H1  H2  EPW O   H1  H2  EPW O   H1  
H2  EPW O   H1  H2  EPW O   H1  H2  EPW O   H1  H2  EPW O   H1  H2  EPW O   H1  
H2  EPW O   H1  H2  EPW O   H1  H2  EPW O   H1  H2  EPW O   H1  H2  EPW O   H1  
H2  EPW O   H1  H2  EPW O   H1  H2  EPW O   H1  H2  EPW O   H1  H2  EPW O   H1  
H2  EPW O   H1  H2  EPW O   H1  H2  EPW O   H1  H2  EPW O   H1  H2  EPW O   H1  
H2  EPW O   H1  H2  EPW O   H1  H2  EPW O   H1  H2  EPW O   H1  H2  EPW O   H1  
H2  EPW O   H1  H2  EPW O   H1  H2  EPW O   H1  H2  EPW O   H1  H2  EPW O   H1  
H2  EPW O   H1  H2  EPW O   H1  H2  EPW O   H1  H2  EPW O   H1  H2  EPW O   H1  
H2  EPW O   H1  H2  EPW O   H1  H2  EPW O   H1  H2  EPW O   H1  H2  EPW O   H1  
H2  EPW O   H1  H2  EPW O   H1  H2  EPW O   H1  H2  EPW O   H1  H2  EPW O   H1  
H2  EPW O   H1  H2  EPW O   H1  H2  EPW O   H1  H2  EPW O   H1  H2  EPW O   H1  
H2  EPW O   H1  H2  EPW O   H1  H2  EPW O   H1  H2  EPW O   H1  H2  EPW O   H1  
H2  EPW O   H1  H2  EPW O   H1  H2  EPW O   H1  H2  EPW O   H1  H2  EPW O   H1  
H2  EPW O   H1  H2  EPW O   H1  H2  EPW O   H1  H2  EPW O   H1  H2  EPW O   H1  
H2  EPW O   H1  H2  EPW O   H1  H2  EPW O   H1  H2  EPW O   H1  H2  EPW O   H1  
H2  EPW O   H1  H2  EPW O   H1  H2  EPW O   H1  H2  EPW O   H1  H2  EPW O   H1  
H2  EPW O   H1  H2  EPW O   H1  H2  EPW O   H1  H2  EPW O   H1  H2  EPW O   H1  
H2  EPW O   H1  H2  EPW O   H1  H2  EPW O   H1  H2  EPW O   H1  H2  EPW O   H1  
H2  EPW O   H1  H2  EPW O   H1  H2  EPW O   H1  H2  EPW O   H1  H2  EPW O   H1  
H2  EPW O   H1  H2  EPW O   H1  H2  EPW O   H1  H2  EPW O   H1  H2  EPW O   H1  
H2  EPW O   H1  H2  EPW O   H1  H2  EPW O   H1  H2  EPW O   H1  H2  EPW O   H1  
H2  EPW O   H1  H2  EPW O   H1  H2  EPW O   H1  H2  EPW O   H1  H2  EPW O   H1  
H2  EPW O   H1  H2  EPW O   H1  H2  EPW O   H1  H2  EPW O   H1  H2  EPW O   H1  
H2  EPW O   H1  H2  EPW O   H1  H2  EPW O   H1  H2  EPW O   H1  H2  EPW O   H1  
H2  EPW O   H1  H2  EPW O   H1  H2  EPW O   H1  H2  EPW O   H1  H2  EPW O   H1  
H2  EPW O   H1  H2  EPW O   H1  H2  EPW O   H1  H2  EPW O   H1  H2  EPW O   H1  
H2  EPW O   H1  H2  EPW O   H1  H2  EPW O   H1  H2  EPW O   H1  H2  EPW O   H1  
H2  EPW O   H1  H2  EPW O   H1  H2  EPW O   H1  H2  EPW O   H1  H2  EPW O   H1  
H2  EPW O   H1  H2  EPW O   H1  H2  EPW O   H1  H2  EPW O   H1  H2  EPW O   H1  
H2  EPW O   H1  H2  EPW O   H1  H2  EPW O   H1  H2  EPW O   H1  H2  EPW O   H1  
H2  EPW O   H1  H2  EPW O   H1  H2  EPW O   H1  H2  EPW O   H1  H2  EPW O   H1  
H2  EPW O   H1  H2  EPW O   H1  H2  EPW O   H1  H2  EPW O   H1  H2  EPW O   H1  
H2  EPW O   H1  H2  EPW O   H1  H2  EPW O   H1  H2  EPW O   H1  H2  EPW O   H1  
H2  EPW O   H1  H2  EPW O   H1  H2  EPW O   H1  H2  EPW O   H1  H2  EPW O   H1  
H2  EPW O   H1  H2  EPW O   H1  H2  EPW O   H1  H2  EPW O   H1  H2  EPW O   H1  
H2  EPW O   H1  H2  EPW O   H1  H2  EPW O   H1  H2  EPW O   H1  H2  EPW O   H1  
H2  EPW O   H1  H2  EPW O   H1  H2  EPW O   H1  H2  EPW O   H1  H2  EPW O   H1  
H2  EPW O   H1  H2  EPW O   H1  H2  EPW O   H1  H2  EPW O   H1  H2  EPW O   H1  
H2  EPW O   H1  H2  EPW O   H1  H2  EPW O   H1  H2  EPW O   H1  H2  EPW O   H1  
H2  EPW O   H1  H2  EPW O   H1  H2  EPW O   H1  H2  EPW O   H1  H2  EPW O   H1  
H2  EPW O   H1  H2  EPW O   H1  H2  EPW O   H1  H2  EPW O   H1  H2  EPW O   H1  
H2  EPW O   H1  H2  EPW O   H1  H2  EPW O   H1  H2  EPW O   H1  H2  EPW O   H1  
H2  EPW O   H1  H2  EPW O   H1  H2  EPW O   H1  H2  EPW O   H1  H2  EPW O   H1  
H2  EPW O   H1  H2  EPW O   H1  H2  EPW O   H1  H2  EPW O   H1  H2  EPW O   H1  
H2  EPW O   H1  H2  EPW O   H1  H2  EPW O   H1  H2  EPW O   H1  H2  EPW O   H1  
H2  EPW O   H1  H2  EPW O   H1  H2  EPW O   H1  H2  EPW O   H1  H2  EPW O   H1  
H2  EPW O   H1  H2  EPW O   H1  H2  EPW O   H1  H2  EPW O   H1  H2  EPW O   H1  
H2  EPW O   H1  H2  EPW O   H1  H2  EPW O   H1  H2  EPW O   H1  H2  EPW O   H1  
H2  EPW O   H1  H2  EPW O   H1  H2  EPW O   H1  H2  EPW O   H1  H2  EPW O   H1  
H2  EPW O   H1  H2  EPW O   H1  H2  EPW O   H1  H2  EPW O   H1  H2  EPW O   H1  
H2  EPW O   H1  H2  EPW O   H1  H2  EPW O   H1  H2  EPW O   H1  H2  EPW O   H1  
H2  EPW O   H1  H2  EPW O   H1  H2  EPW O   H1  H2  EPW O   H1  H2  EPW O   H1  
H2  EPW O   H1  H2  EPW O   H1  H2  EPW O   H1  H2  EPW O   H1  H2  EPW O   H1  
H2  EPW O   H1  H2  EPW O   H1  H2  EPW O   H1  H2  EPW O   H1  H2  EPW O   H1  
H2  EPW O   H1  H2  EPW O   H1  H2  EPW O   H1  H2  EPW O   H1  H2  EPW O   H1  
H2  EPW O   H1  H2  EPW O   H1  H2  EPW O   H1  H2  EPW O   H1  H2  EPW O   H1  
H2  EPW O   H1  H2  EPW O   H1  H2  EPW O   H1  H2  EPW O   H1  H2  EPW O   H1  
H2  EPW O   H1  H2  EPW O   H1  H2  EPW O   H1  H2  EPW O   H1  H2  EPW O   H1  
H2  EPW O   H1  H2  EPW O   H1  H2  EPW O   H1  H2  EPW O   H1  H2  EPW O   H1  
H2  EPW O   H1  H2  EPW O   H1  H2  EPW O   H1  H2  EPW O   H1  H2  EPW O   H1  
H2  EPW O   H1  H2  EPW O   H1  H2  EPW O   H1  H2  EPW O   H1  H2  EPW O   H1  
H2  EPW O   H1  H2  EPW O   H1  H2  EPW O   H1  H2  EPW O   H1  H2  EPW O   H1  
H2  EPW O   H1  H2  EPW O   H1  H2  EPW O   H1  H2  EPW O   H1  H2  EPW O   H1  
H2  EPW O   H1  H2  EPW O   H1  H2  EPW O   H1  H2  EPW O   H1  H2  EPW O   H1  
H2  EPW O   H1  H2  EPW O   H1  H2  EPW O   H1  H2  EPW O   H1  H2  EPW O   H1  
H2  EPW O   H1  H2  EPW O   H1  H2  EPW O   H1  H2  EPW O   H1  H2  EPW O   H1  
H2  EPW O   H1  H2  EPW O   H1  H2  EPW O   H1  H2  EPW O   H1  H2  EPW O   H1  
H2  EPW O   H1  H2  EPW O   H1  H2  EPW O   H1  H2  EPW O   H1  H2  EPW O   H1  
H2  EPW O   H1  H2  EPW O   H1  H2  EPW O   H1  H2  EPW O   H1  H2  EPW O   H1  
H2  EPW O   H1  H2  EPW O   H1  H2  EPW O   H1  H2  EPW O   H1  H2  EPW O   H1  
H2  EPW O   H1  H2  EPW O   H1  H2  EPW O   H1  H2  EPW O   H1  H2  EPW O   H1  
H2  EPW O   H1  H2  EPW O   H1  H2  EPW O   H1  H2  EPW O   H1  H2  EPW O   H1  
H2  EPW O   H1  H2  EPW O   H1  H2  EPW O   H1  H2  EPW O   H1  H2  EPW O   H1  
H2  EPW O   H1  H2  EPW O   H1  H2  EPW O   H1  H2  EPW O   H1  H2  EPW O   H1  
H2  EPW O   H1  H2  EPW O   H1  H2  EPW O   H1  H2  EPW O   H1  H2  EPW O   H1  
H2  EPW O   H1  H2  EPW O   H1  H2  EPW O   H1  H2  EPW O   H1  H2  EPW O   H1  
H2  EPW O   H1  H2  EPW O   H1  H2  EPW O   H1  H2  EPW O   H1  H2  EPW O   H1  
H2  EPW O   H1  H2  EPW O   H1  H2  EPW O   H1  H2  EPW O   H1  H2  EPW O   H1  
H2  EPW O   H1  H2  EPW O   H1  H2  EPW O   H1  H2  EPW O   H1  H2  EPW O   H1  
H2  EPW O   H1  H2  EPW O   H1  H2  EPW O   H1  H2  EPW O   H1  H2  EPW O   H1  
H2  EPW O   H1  H2  EPW O   H1  H2  EPW O   H1  H2  EPW O   H1  H2  EPW O   H1  
H2  EPW O   H1  H2  EPW O   H1  H2  EPW O   H1  H2  EPW O   H1  H2  EPW O   H1  
H2  EPW O   H1  H2  EPW O   H1  H2  EPW O   H1  H2  EPW O   H1  H2  EPW O   H1  
H2  EPW O   H1  H2  EPW O   H1  H2  EPW O   H1  H2  EPW O   H1  H2  EPW O   H1  
H2  EPW O   H1  H2  EPW O   H1  H2  EPW O   H1  H2  EPW O   H1  H2  EPW O   H1  
H2  EPW O   H1  H2  EPW O   H1  H2  EPW O   H1  H2  EPW O   H1  H2  EPW O   H1  
H2  EPW O   H1  H2  EPW O   H1  H2  EPW O   H1  H2  EPW O   H1  H2  EPW O   H1  
H2  EPW O   H1  H2  EPW O   H1  H2  EPW O   H1  H2  EPW O   H1  H2  EPW O   H1  
H2  EPW O   H1  H2  EPW O   H1  H2  EPW O   H1  H2  EPW O   H1  H2  EPW O   H1  
H2  EPW O   H1  H2  EPW O   H1  H2  EPW O   H1  H2  EPW O   H1  H2  EPW O   H1  
H2  EPW O   H1  H2  EPW O   H1  H2  EPW O   H1  H2  EPW O   H1  H2  EPW O   H1  
H2  EPW O   H1  H2  EPW O   H1  H2  EPW O   H1  H2  EPW O   H1  H2  EPW O   H1  
H2  EPW O   H1  H2  EPW O   H1  H2  EPW O   H1  H2  EPW O   H1  H2  EPW O   H1  
H2  EPW O   H1  H2  EPW O   H1  H2  EPW O   H1  H2  EPW O   H1  H2  EPW O   H1  
H2  EPW O   H1  H2  EPW O   H1  H2  EPW O   H1  H2  EPW O   H1  H2  EPW O   H1  
H2  EPW O   H1  H2  EPW O   H1  H2  EPW O   H1  H2  EPW O   H1  H2  EPW O   H1  
H2  EPW O   H1  H2  EPW O   H1  H2  EPW O   H1  H2  EPW O   H1  H2  EPW O   H1  
H2  EPW O   H1  H2  EPW O   H1  H2  EPW O   H1  H2  EPW O   H1  H2  EPW O   H1  
H2  EPW O   H1  H2  EPW O   H1  H2  EPW O   H1  H2  EPW O   H1  H2  EPW O   H1  
H2  EPW O   H1  H2  EPW O   H1  H2  EPW O   H1  H2  EPW O   H1  H2  EPW O   H1  
H2  EPW O   H1  H2  EPW O   H1  H2  EPW O   H1  H2  EPW O   H1  H2  EPW O   H1  
H2  EPW O   H1  H2  EPW O   H1  H2  EPW O   H1  H2  EPW O   H1  H2  EPW O   H1  
H2  EPW O   H1  H2  EPW O   H1  H2  EPW O   H1  H2  EPW O   H1  H2  EPW O   H1  
H2  EPW O   H1  H2  EPW O   H1  H2  EPW O   H1  H2  EPW O   H1  H2  EPW O   H1  
H2  EPW O   H1  H2  EPW O   H1  H2  EPW O   H1  H2  EPW O   H1  H2  EPW O   H1  
H2  EPW O   H1  H2  EPW O   H1  H2  EPW O   H1  H2  EPW O   H1  H2  EPW O   H1  
H2  EPW O   H1  H2  EPW O   H1  H2  EPW O   H1  H2  EPW O   H1  H2  EPW O   H1  
H2  EPW O   H1  H2  EPW O   H1  H2  EPW O   H1  H2  EPW O   H1  H2  EPW O   H1  
H2  EPW O   H1  H2  EPW O   H1  H2  EPW O   H1  H2  EPW O   H1  H2  EPW O   H1  
H2  EPW O   H1  H2  EPW O   H1  H2  EPW O   H1  H2  EPW O   H1  H2  EPW O   H1  
H2  EPW O   H1  H2  EPW O   H1  H2  EPW O   H1  H2  EPW O   H1  H2  EPW O   H1  
H2  EPW O   H1  H2  EPW O   H1  H2  EPW O   H1  H2  EPW O   H1  H2  EPW O   H1  
H2  EPW O   H1  H2  EPW O   H1  H2  EPW O   H1  H2  EPW O   H1  H2  EPW O   H1  
H2  EPW O   H1  H2  EPW O   H1  H2  EPW O   H1  H2  EPW O   H1  H2  EPW O   H1  
H2  EPW O   H1  H2  EPW O   H1  H2  EPW O   H1  H2  EPW O   H1  H2  EPW O   H1  
H2  EPW O   H1  H2  EPW O   H1  H2  EPW O   H1  H2  EPW O   H1  H2  EPW O   H1  
H2  EPW O   H1  H2  EPW O   H1  H2  EPW O   H1  H2  EPW O   H1  H2  EPW O   H1  
H2  EPW O   H1  H2  EPW O   H1  H2  EPW O   H1  H2  EPW O   H1  H2  EPW O   H1  
H2  EPW O   H1  H2  EPW O   H1  H2  EPW O   H1  H2  EPW O   H1  H2  EPW O   H1  
H2  EPW O   H1  H2  EPW O   H1  H2  EPW O   H1  H2  EPW O   H1  H2  EPW O   H1  
H2  EPW O   H1  H2  EPW O   H1  H2  EPW O   H1  H2  EPW O   H1  H2  EPW O   H1  
H2  EPW O   H1  H2  EPW O   H1  H2  EPW O   H1  H2  EPW O   H1  H2  EPW O   H1  
H2  EPW O   H1  H2  EPW O   H1  H2  EPW O   H1  H2  EPW O   H1  H2  EPW O   H1  
H2  EPW O   H1  H2  EPW O   H1  H2  EPW O   H1  H2  EPW O   H1  H2  EPW O   H1  
H2  EPW O   H1  H2  EPW O   H1  H2  EPW O   H1  H2  EPW O   H1  H2  EPW O   H1  
H2  EPW O   H1  H2  EPW O   H1  H2  EPW O   H1  H2  EPW O   H1  H2  EPW O   H1  
H2  EPW O   H1  H2  EPW O   H1  H2  EPW O   H1  H2  EPW O   H1  H2  EPW O   H1  
H2  EPW O   H1  H2  EPW O   H1  H2  EPW O   H1  H2  EPW O   H1  H2  EPW O   H1  
H2  EPW O   H1  H2  EPW O   H1  H2  EPW O   H1  H2  EPW O   H1  H2  EPW O   H1  
H2  EPW O   H1  H2  EPW O   H1  H2  EPW O   H1  H2  EPW O   H1  H2  EPW O   H1  
H2  EPW O   H1  H2  EPW O   H1  H2  EPW O   H1  H2  EPW O   H1  H2  EPW O   H1  
H2  EPW O   H1  H2  EPW O   H1  H2  EPW O   H1  H2  EPW O   H1  H2  EPW O   H1  
H2  EPW O   H1  H2  EPW O   H1  H2  EPW O   H1  H2  EPW O   H1  H2  EPW O   H1  
H2  EPW O   H1  H2  EPW O   H1  H2  EPW O   H1  H2  EPW O   H1  H2  EPW O   H1  
H2  EPW O   H1  H2  EPW O   H1  H2  EPW O   H1  H2  EPW O   H1  H2  EPW O   H1  
H2  EPW O   H1  H2  EPW O   H1  H2  EPW O   H1  H2  EPW O   H1  H2  EPW O   H1  
H2  EPW O   H1  H2  EPW O   H1  H2  EPW O   H1  H2  EPW O   H1  H2  EPW O   H1  
H2  EPW O   H1  H2  EPW O   H1  H2  EPW O   H1  H2  EPW O   H1  H2  EPW O   H1  
H2  EPW O   H1  H2  EPW O   H1  H2  EPW O   H1  H2  EPW O   H1  H2  EPW O   H1  
H2  EPW O   H1  H2  EPW O   H1  H2  EPW O   H1  H2  EPW O   H1  H2  EPW O   H1  
H2  EPW O   H1  H2  EPW O   H1  H2  EPW O   H1  H2  EPW O   H1  H2  EPW O   H1  
H2  EPW O   H1  H2  EPW O   H1  H2  EPW O   H1  H2  EPW O   H1  H2  EPW O   H1  
H2  EPW O   H1  H2  EPW O   H1  H2  EPW O   H1  H2  EPW O   H1  H2  EPW O   H1  
H2  EPW O   H1  H2  EPW O   H1  H2  EPW O   H1  H2  EPW O   H1  H2  EPW O   H1  
H2  EPW O   H1  H2  EPW O   H1  H2  EPW O   H1  H2  EPW O   H1  H2  EPW O   H1  
H2  EPW O   H1  H2  EPW O   H1  H2  EPW O   H1  H2  EPW O   H1  H2  EPW O   H1  
H2  EPW O   H1  H2  EPW O   H1  H2  EPW O   H1  H2  EPW O   H1  H2  EPW O   H1  
H2  EPW O   H1  H2  EPW O   H1  H2  EPW O   H1  H2  EPW O   H1  H2  EPW O   H1  
H2  EPW O   H1  H2  EPW O   H1  H2  EPW O   H1  H2  EPW O   H1  H2  EPW O   H1  
H2  EPW O   H1  H2  EPW O   H1  H2  EPW O   H1  H2  EPW O   H1  H2  EPW O   H1  
H2  EPW O   H1  H2  EPW O   H1  H2  EPW O   H1  H2  EPW O   H1  H2  EPW O   H1  
H2  EPW O   H1  H2  EPW O   H1  H2  EPW O   H1  H2  EPW O   H1  H2  EPW O   H1  
H2  EPW O   H1  H2  EPW O   H1  H2  EPW O   H1  H2  EPW O   H1  H2  EPW O   H1  
H2  EPW O   H1  H2  EPW O   H1  H2  EPW O   H1  H2  EPW O   H1  H2  EPW O   H1  
H2  EPW O   H1  H2  EPW O   H1  H2  EPW O   H1  H2  EPW O   H1  H2  EPW O   H1  
H2  EPW O   H1  H2  EPW O   H1  H2  EPW O   H1  H2  EPW O   H1  H2  EPW O   H1  
H2  EPW O   H1  H2  EPW O   H1  H2  EPW O   H1  H2  EPW O   H1  H2  EPW O   H1  
H2  EPW O   H1  H2  EPW O   H1  H2  EPW O   H1  H2  EPW O   H1  H2  EPW O   H1  
H2  EPW O   H1  H2  EPW O   H1  H2  EPW O   H1  H2  EPW O   H1  H2  EPW O   H1  
H2  EPW O   H1  H2  EPW O   H1  H2  EPW O   H1  H2  EPW O   H1  H2  EPW O   H1  
H2  EPW O   H1  H2  EPW O   H1  H2  EPW O   H1  H2  EPW O   H1  H2  EPW O   H1  
H2  EPW O   H1  H2  EPW O   H1  H2  EPW O   H1  H2  EPW O   H1  H2  EPW O   H1  
H2  EPW O   H1  H2  EPW O   H1  H2  EPW O   H1  H2  EPW O   H1  H2  EPW O   H1  
H2  EPW O   H1  H2  EPW O   H1  H2  EPW O   H1  H2  EPW O   H1  H2  EPW O   H1  
H2  EPW O   H1  H2  EPW O   H1  H2  EPW O   H1  H2  EPW O   H1  H2  EPW O   H1  
H2  EPW O   H1  H2  EPW O   H1  H2  EPW O   H1  H2  EPW O   H1  H2  EPW O   H1  
H2  EPW O   H1  H2  EPW O   H1  H2  EPW O   H1  H2  EPW O   H1  H2  EPW O   H1  
H2  EPW O   H1  H2  EPW O   H1  H2  EPW O   H1  H2  EPW O   H1  H2  EPW O   H1  
H2  EPW O   H1  H2  EPW O   H1  H2  EPW O   H1  H2  EPW O   H1  H2  EPW O   H1  
H2  EPW O   H1  H2  EPW O   H1  H2  EPW O   H1  H2  EPW O   H1  H2  EPW O   H1  
H2  EPW O   H1  H2  EPW O   H1  H2  EPW O   H1  H2  EPW O   H1  H2  EPW O   H1  
H2  EPW O   H1  H2  EPW O   H1  H2  EPW O   H1  H2  EPW O   H1  H2  EPW O   H1  
H2  EPW O   H1  H2  EPW O   H1  H2  EPW O   H1  H2  EPW O   H1  H2  EPW O   H1  
H2  EPW O   H1  H2  EPW O   H1  H2  EPW O   H1  H2  EPW O   H1  H2  EPW O   H1  
H2  EPW O   H1  H2  EPW O   H1  H2  EPW O   H1  H2  EPW O   H1  H2  EPW O   H1  
H2  EPW O   H1  H2  EPW O   H1  H2  EPW O   H1  H2  EPW O   H1  H2  EPW O   H1  
H2  EPW O   H1  H2  EPW O   H1  H2  EPW O   H1  H2  EPW O   H1  H2  EPW O   H1  
H2  EPW O   H1  H2  EPW O   H1  H2  EPW O   H1  H2  EPW O   H1  H2  EPW O   H1  
H2  EPW O   H1  H2  EPW O   H1  H2  EPW O   H1  H2  EPW O   H1  H2  EPW O   H1  
H2  EPW O   H1  H2  EPW O   H1  H2  EPW O   H1  H2  EPW O   H1  H2  EPW O   H1  
H2  EPW O   H1  H2  EPW O   H1  H2  EPW O   H1  H2  EPW O   H1  H2  EPW O   H1  
H2  EPW O   H1  H2  EPW O   H1  H2  EPW O   H1  H2  EPW O   H1  H2  EPW O   H1  
H2  EPW O   H1  H2  EPW O   H1  H2  EPW O   H1  H2  EPW O   H1  H2  EPW O   H1  
H2  EPW O   H1  H2  EPW O   H1  H2  EPW O   H1  H2  EPW O   H1  H2  EPW O   H1  
H2  EPW O   H1  H2  EPW O   H1  H2  EPW O   H1  H2  EPW O   H1  H2  EPW O   H1  
H2  EPW O   H1  H2  EPW O   H1  H2  EPW O   H1  H2  EPW O   H1  H2  EPW O   H1  
H2  EPW O   H1  H2  EPW O   H1  H2  EPW O   H1  H2  EPW O   H1  H2  EPW O   H1  
H2  EPW O   H1  H2  EPW O   H1  H2  EPW O   H1  H2  EPW O   H1  H2  EPW O   H1  
H2  EPW O   H1  H2  EPW O   H1  H2  EPW O   H1  H2  EPW O   H1  H2  EPW O   H1  
H2  EPW O   H1  H2  EPW O   H1  H2  EPW O   H1  H2  EPW O   H1  H2  EPW O   H1  
H2  EPW O   H1  H2  EPW O   H1  H2  EPW O   H1  H2  EPW O   H1  H2  EPW O   H1  
H2  EPW O   H1  H2  EPW O   H1  H2  EPW O   H1  H2  EPW O   H1  H2  EPW O   H1  
H2  EPW O   H1  H2  EPW O   H1  H2  EPW O   H1  H2  EPW O   H1  H2  EPW O   H1  
H2  EPW O   H1  H2  EPW O   H1  H2  EPW O   H1  H2  EPW O   H1  H2  EPW O   H1  
H2  EPW O   H1  H2  EPW O   H1  H2  EPW O   H1  H2  EPW O   H1  H2  EPW O   H1  
H2  EPW O   H1  H2  EPW O   H1  H2  EPW O   H1  H2  EPW O   H1  H2  EPW O   H1  
H2  EPW O   H1  H2  EPW O   H1  H2  EPW O   H1  H2  EPW O   H1  H2  EPW O   H1  
H2  EPW O   H1  H2  EPW O   H1  H2  EPW O   H1  H2  EPW O   H1  H2  EPW O   H1  
H2  EPW O   H1  H2  EPW O   H1  H2  EPW O   H1  H2  EPW O   H1  H2  EPW O   H1  
H2  EPW O   H1  H2  EPW O   H1  H2  EPW O   H1  H2  EPW O   H1  H2  EPW O   H1  
H2  EPW O   H1  H2  EPW O   H1  H2  EPW O   H1  H2  EPW O   H1  H2  EPW O   H1  
H2  EPW O   H1  H2  EPW O   H1  H2  EPW O   H1  H2  EPW O   H1  H2  EPW O   H1  
H2  EPW O   H1  H2  EPW O   H1  H2  EPW O   H1  H2  EPW O   H1  H2  EPW O   H1  
H2  EPW O   H1  H2  EPW O   H1  H2  EPW O   H1  H2  EPW O   H1  H2  EPW O   H1  
H2  EPW O   H1  H2  EPW O   H1  H2  EPW O   H1  H2  EPW O   H1  H2  EPW O   H1  
H2  EPW O   H1  H2  EPW O   H1  H2  EPW O   H1  H2  EPW O   H1  H2  EPW O   H1  
H2  EPW O   H1  H2  EPW O   H1  H2  EPW O   H1  H2  EPW O   H1  H2  EPW O   H1  
H2  EPW O   H1  H2  EPW O   H1  H2  EPW O   H1  H2  EPW O   H1  H2  EPW O   H1  
H2  EPW O   H1  H2  EPW O   H1  H2  EPW O   H1  H2  EPW O   H1  H2  EPW O   H1  
H2  EPW O   H1  H2  EPW O   H1  H2  EPW O   H1  H2  EPW O   H1  H2  EPW O   H1  
H2  EPW O   H1  H2  EPW O   H1  H2  EPW O   H1  H2  EPW O   H1  H2  EPW O   H1  
H2  EPW O   H1  H2  EPW O   H1  H2  EPW O   H1  H2  EPW O   H1  H2  EPW O   H1  
H2  EPW O   H1  H2  EPW O   H1  H2  EPW O   H1  H2  EPW O   H1  H2  EPW O   H1  
H2  EPW O   H1  H2  EPW O   H1  H2  EPW O   H1  H2  EPW O   H1  H2  EPW O   H1  
H2  EPW O   H1  H2  EPW O   H1  H2  EPW O   H1  H2  EPW O   H1  H2  EPW O   H1  
H2  EPW O   H1  H2  EPW O   H1  H2  EPW O   H1  H2  EPW O   H1  H2  EPW O   H1  
H2  EPW O   H1  H2  EPW O   H1  H2  EPW O   H1  H2  EPW O   H1  H2  EPW O   H1  
H2  EPW O   H1  H2  EPW O   H1  H2  EPW O   H1  H2  EPW O   H1  H2  EPW O   H1  
H2  EPW O   H1  H2  EPW O   H1  H2  EPW O   H1  H2  EPW O   H1  H2  EPW O   H1  
H2  EPW O   H1  H2  EPW O   H1  H2  EPW O   H1  H2  EPW O   H1  H2  EPW O   H1  
H2  EPW O   H1  H2  EPW O   H1  H2  EPW O   H1  H2  EPW O   H1  H2  EPW O   H1  
H2  EPW O   H1  H2  EPW O   H1  H2  EPW O   H1  H2  EPW O   H1  H2  EPW O   H1  
H2  EPW O   H1  H2  EPW O   H1  H2  EPW O   H1  H2  EPW O   H1  H2  EPW O   H1  
H2  EPW O   H1  H2  EPW O   H1  H2  EPW O   H1  H2  EPW O   H1  H2  EPW O   H1  
H2  EPW O   H1  H2  EPW O   H1  H2  EPW O   H1  H2  EPW O   H1  H2  EPW O   H1  
H2  EPW O   H1  H2  EPW O   H1  H2  EPW O   H1  H2  EPW O   H1  H2  EPW O   H1  
H2  EPW O   H1  H2  EPW O   H1  H2  EPW O   H1  H2  EPW O   H1  H2  EPW O   H1  
H2  EPW O   H1  H2  EPW O   H1  H2  EPW O   H1  H2  EPW O   H1  H2  EPW O   H1  
H2  EPW O   H1  H2  EPW O   H1  H2  EPW O   H1  H2  EPW O   H1  H2  EPW O   H1  
H2  EPW O   H1  H2  EPW O   H1  H2  EPW O   H1  H2  EPW O   H1  H2  EPW O   H1  
H2  EPW O   H1  H2  EPW O   H1  H2  EPW O   H1  H2  EPW O   H1  H2  EPW O   H1  
H2  EPW O   H1  H2  EPW O   H1  H2  EPW O   H1  H2  EPW O   H1  H2  EPW O   H1  
H2  EPW O   H1  H2  EPW O   H1  H2  EPW O   H1  H2  EPW O   H1  H2  EPW O   H1  
H2  EPW O   H1  H2  EPW O   H1  H2  EPW O   H1  H2  EPW O   H1  H2  EPW O   H1  
H2  EPW O   H1  H2  EPW O   H1  H2  EPW O   H1  H2  EPW O   H1  H2  EPW O   H1  
H2  EPW O   H1  H2  EPW O   H1  H2  EPW O   H1  H2  EPW O   H1  H2  EPW O   H1  
H2  EPW O   H1  H2  EPW O   H1  H2  EPW O   H1  H2  EPW O   H1  H2  EPW O   H1  
H2  EPW O   H1  H2  EPW O   H1  H2  EPW O   H1  H2  EPW O   H1  H2  EPW O   H1  
H2  EPW O   H1  H2  EPW O   H1  H2  EPW O   H1  H2  EPW O   H1  H2  EPW O   H1  
H2  EPW O   H1  H2  EPW O   H1  H2  EPW O   H1  H2  EPW O   H1  H2  EPW O   H1  
H2  EPW O   H1  H2  EPW O   H1  H2  EPW O   H1  H2  EPW O   H1  H2  EPW O   H1  
H2  EPW O   H1  H2  EPW O   H1  H2  EPW O   H1  H2  EPW O   H1  H2  EPW O   H1  
H2  EPW O   H1  H2  EPW O   H1  H2  EPW O   H1  H2  EPW O   H1  H2  EPW O   H1  
H2  EPW O   H1  H2  EPW O   H1  H2  EPW O   H1  H2  EPW O   H1  H2  EPW O   H1  
H2  EPW O   H1  H2  EPW O   H1  H2  EPW O   H1  H2  EPW O   H1  H2  EPW O   H1  
H2  EPW O   H1  H2  EPW O   H1  H2  EPW O   H1  H2  EPW O   H1  H2  EPW O   H1  
H2  EPW O   H1  H2  EPW O   H1  H2  EPW O   H1  H2  EPW O   H1  H2  EPW O   H1  
H2  EPW O   H1  H2  EPW O   H1  H2  EPW O   H1  H2  EPW O   H1  H2  EPW O   H1  
H2  EPW O   H1  H2  EPW O   H1  H2  EPW O   H1  H2  EPW O   H1  H2  EPW O   H1  
H2  EPW O   H1  H2  EPW O   H1  H2  EPW O   H1  H2  EPW O   H1  H2  EPW O   H1  
H2  EPW O   H1  H2  EPW O   H1  H2  EPW O   H1  H2  EPW O   H1  H2  EPW O   H1  
H2  EPW O   H1  H2  EPW O   H1  H2  EPW O   H1  H2  EPW O   H1  H2  EPW O   H1  
H2  EPW O   H1  H2  EPW O   H1  H2  EPW O   H1  H2  EPW O   H1  H2  EPW O   H1  
H2  EPW O   H1  H2  EPW O   H1  H2  EPW O   H1  H2  EPW O   H1  H2  EPW O   H1  
H2  EPW O   H1  H2  EPW O   H1  H2  EPW O   H1  H2  EPW O   H1  H2  EPW O   H1  
H2  EPW O   H1  H2  EPW O   H1  H2  EPW O   H1  H2  EPW O   H1  H2  EPW O   H1  
H2  EPW O   H1  H2  EPW O   H1  H2  EPW O   H1  H2  EPW O   H1  H2  EPW O   H1  
H2  EPW O   H1  H2  EPW O   H1  H2  EPW O   H1  H2  EPW O   H1  H2  EPW O   H1  
H2  EPW O   H1  H2  EPW O   H1  H2  EPW O   H1  H2  EPW O   H1  H2  EPW O   H1  
H2  EPW O   H1  H2  EPW O   H1  H2  EPW O   H1  H2  EPW O   H1  H2  EPW O   H1  
H2  EPW O   H1  H2  EPW O   H1  H2  EPW O   H1  H2  EPW O   H1  H2  EPW O   H1  
H2  EPW O   H1  H2  EPW O   H1  H2  EPW O   H1  H2  EPW O   H1  H2  EPW O   H1  
H2  EPW O   H1  H2  EPW O   H1  H2  EPW O   H1  H2  EPW O   H1  H2  EPW O   H1  
H2  EPW O   H1  H2  EPW O   H1  H2  EPW O   H1  H2  EPW O   H1  H2  EPW O   H1  
H2  EPW O   H1  H2  EPW O   H1  H2  EPW O   H1  H2  EPW O   H1  H2  EPW O   H1  
H2  EPW O   H1  H2  EPW O   H1  H2  EPW O   H1  H2  EPW O   H1  H2  EPW O   H1  
H2  EPW O   H1  H2  EPW O   H1  H2  EPW O   H1  H2  EPW O   H1  H2  EPW O   H1  
H2  EPW O   H1  H2  EPW O   H1  H2  EPW O   H1  H2  EPW O   H1  H2  EPW O   H1  
H2  EPW O   H1  H2  EPW O   H1  H2  EPW O   H1  H2  EPW O   H1  H2  EPW O   H1  
H2  EPW O   H1  H2  EPW O   H1  H2  EPW O   H1  H2  EPW O   H1  H2  EPW O   H1  
H2  EPW O   H1  H2  EPW O   H1  H2  EPW O   H1  H2  EPW O   H1  H2  EPW O   H1  
H2  EPW O   H1  H2  EPW O   H1  H2  EPW O   H1  H2  EPW O   H1  H2  EPW O   H1  
H2  EPW O   H1  H2  EPW O   H1  H2  EPW O   H1  H2  EPW O   H1  H2  EPW O   H1  
H2  EPW O   H1  H2  EPW O   H1  H2  EPW O   H1  H2  EPW O   H1  H2  EPW O   H1  
H2  EPW O   H1  H2  EPW O   H1  H2  EPW O   H1  H2  EPW O   H1  H2  EPW O   H1  
H2  EPW O   H1  H2  EPW O   H1  H2  EPW O   H1  H2  EPW O   H1  H2  EPW O   H1  
H2  EPW O   H1  H2  EPW O   H1  H2  EPW O   H1  H2  EPW O   H1  H2  EPW O   H1  
H2  EPW O   H1  H2  EPW O   H1  H2  EPW O   H1  H2  EPW O   H1  H2  EPW O   H1  
H2  EPW O   H1  H2  EPW O   H1  H2  EPW O   H1  H2  EPW O   H1  H2  EPW O   H1  
H2  EPW O   H1  H2  EPW O   H1  H2  EPW O   H1  H2  EPW O   H1  H2  EPW O   H1  
H2  EPW O   H1  H2  EPW O   H1  H2  EPW O   H1  H2  EPW O   H1  H2  EPW O   H1  
H2  EPW O   H1  H2  EPW O   H1  H2  EPW O   H1  H2  EPW O   H1  H2  EPW O   H1  
H2  EPW O   H1  H2  EPW O   H1  H2  EPW O   H1  H2  EPW O   H1  H2  EPW O   H1  
H2  EPW O   H1  H2  EPW O   H1  H2  EPW O   H1  H2  EPW O   H1  H2  EPW O   H1  
H2  EPW O   H1  H2  EPW O   H1  H2  EPW O   H1  H2  EPW O   H1  H2  EPW O   H1  
H2  EPW O   H1  H2  EPW O   H1  H2  EPW O   H1  H2  EPW O   H1  H2  EPW O   H1  
H2  EPW O   H1  H2  EPW O   H1  H2  EPW O   H1  H2  EPW O   H1  H2  EPW O   H1  
H2  EPW O   H1  H2  EPW 
%FLAG CHARGE
%FORMAT(5E16.8)
  3.36930327E+00  3.45859254E+00  3.45859254E+00  3.45859254E+00  1.03320441E+00
  1.42498386E+00  4.73050908E+00  4.97468790E-01  4.97468790E-01 -1.22344522E+01
  7.72443297E+00  1.12304035E+01 -1.04268001E+01 -7.57501011E+00  4.95464337E+00
 -9.43915140E-01  1.68009606E+00 -2.00809746E+00  8.32759110E-01  8.32759110E-01
  6.43429413E+00 -6.57825030E-01 -7.50940983E+00  1.82223000E+00  1.82223000E+00
  1.82223000E+00 -7.50940983E+00  1.82223000E+00  1.82223000E+00  1.82223000E+00
  1.08841798E+01 -1.03484442E+01 -7.57501011E+00  4.95464337E+00  6.14091510E-01
  1.49969529E+00 -3.32556975E+00  1.09880469E+00  1.09880469E+00  1.09880469E+00
  1.08841798E+01 -1.03484442E+01 -7.57501011E+00  4.95464337E+00 -1.05871563E+00
  2.47823280E+00 -1.34845020E-01  6.68758410E-01  6.68758410E-01  3.40392564E+00
 -9.89835336E+00  2.97934605E+00  2.61490005E+00 -5.09313285E+00  6.08442597E+00
 -4.02166161E+00  3.39299226E+00  1.08841798E+01 -1.03484442E+01 -6.96274083E+00
  4.88539863E+00 -4.96011006E+00  2.37618792E+00  2.04636429E+00  1.48147299E+00
  1.48147299E+00 -1.18700062E+01  8.15265702E+00  1.47837520E+01 -1.48183744E+01
 -1.48183744E+01  1.84045230E+00  3.91415004E+00  3.91415004E+00  3.91415004E+00
  1.89511920E-01  1.91880819E+00 -4.44624120E-01  4.66490880E-01  4.66490880E-01
  6.23384883E+00 -6.92447400E-01 -7.48207638E+00  1.78578540E+00  1.78578540E+00
  1.78578540E+00 -7.47843192E+00  1.78578540E+00  1.78578540E+00  1.78578540E+00
  1.11575143E+01 -1.04104000E+01 -7.57501011E+00  4.95464337E+00 -1.59445125E+00
  1.76574087E+00  5.43935655E+00 -5.41202310E-01 -5.81655816E+00  1.44138393E+00
  1.44138393E+00  1.44138393E+00 -5.81655816E+00  1.44138393E+00  1.44138393E+00
  1.44138393E+00  1.08841798E+01 -1.03484442E+01 -7.57501011E+00  4.95464337E+00
 -7.08847470E-01  1.83498561E+00  6.65842842E+00  7.83558900E-02 -4.44259674E+00
  1.16987166E+00  1.16987166E+00  1.16987166E+00 -1.23200970E+01  7.47478746E+00
  1.08841798E+01 -1.03484442E+01 -6.33953817E+00  5.00566581E+00 -4.37335200E+00
  2.59849998E+00 -1.71289620E-01  6.59647260E-01  6.59647260E-01  3.40757010E-01
  1.87689690E-01  1.87689690E-01 -8.72848170E-01  1.13160483E+00  1.13160483E+00
 -2.60578890E-01  2.06823105E+00  2.06823105E+00 -7.02287442E+00  6.19558200E+00
  6.19558200E+00  6.19558200E+00  1.33769904E+01 -1.07402236E+01 -6.96274083E+00
  4.88539863E+00 -5.18788881E+00  2.45272158E+00 -4.49908587E+00  1.77485202E+00
  1.77485202E+00  6.75318438E+00 -6.81514020E-01 -7.58594349E+00  1.89147474E+00
  1.89147474E+00  1.89147474E+00 -7.58594349E+00  1.89147474E+00  1.89147474E+00
  1.89147474E+00  1.51718870E+01 -1.49404638E+01 -1.49404638E+01 -9.65053008E+00
  5.16055536E+00  8.47336950E-01 -3.50414829E+00  1.80765216E+00 -2.48187726E+00
 -2.26320966E+00 -9.51204060E-01 -2.00445300E-02  2.63549125E+01 -1.20959627E+01
 -1.20959627E+01 -6.51082779E+00 -7.96496733E+00  1.39965486E+01 -1.11903144E+01
 -8.20185723E+00  5.98602555E+00  5.78558025E+00  1.03138218E+00 -2.20489830E+00
 -2.75156730E+00 -1.96800840E+00 -7.10669700E-02 -2.15023140E+00 -1.47782853E+00
  3.24356940E+00  2.44178820E+00  1.03320441E+00  1.03320441E+00  7.68981060E-01
  7.68981060E-01  2.02327664E+00  2.02327664E+00  2.02327664E+00  3.17068020E+00
  2.62401120E+00  2.66045580E+00  2.76978960E+00 -1.82223000E+01  1.82223000E+01
  1.82223000E+01  1.82223000E+01  1.82223000E+01  1.82223000E+01  1.82223000E+01
  1.82223000E+01 -1.82223000E+01 -1.82223000E+01 -1.82223000E+01 -1.82223000E+01
 -1.82223000E+01 -1.82223000E+01 -1.82223000E+01  0.00000000E+00  1.23755293E+01
  1.23755293E+01 -2.47510585E+01  0.00000000E+00  1.23755293E+01  1.23755293E+01
 -2.47510585E+01  0.00000000E+00  1.23755293E+01  1.23755293E+01 -2.47510585E+01
  0.00000000E+00  1.23755293E+01  1.23755293E+01 -2.47510585E+01  0.00000000E+00
  1.23755293E+01  1.23755293E+01 -2.47510585E+01  0.00000000E+00  1.23755293E+01
  1.23755293E+01 -2.47510585E+01  0.00000000E+00  1.23755293E+01  1.23755293E+01
 -2.47510585E+01  0.00000000E+00  1.23755293E+01  1.23755293E+01 -2.47510585E+01
  0.00000000E+00  1.23755293E+01  1.23755293E+01 -2.47510585E+01  0.00000000E+00
  1.23755293E+01  1.23755293E+01 -2.47510585E+01  0.00000000E+00  1.23755293E+01
  1.23755293E+01 -2.47510585E+01  0.00000000E+00  1.23755293E+01  1.23755293E+01
 -2.47510585E+01  0.00000000E+00  1.23755293E+01  1.23755293E+01 -2.47510585E+01
  0.00000000E+00  1.23755293E+01  1.23755293E+01 -2.47510585E+01  0.00000000E+00
  1.23755293E+01  1.23755293E+01 -2.47510585E+01  0.00000000E+00  1.23755293E+01
  1.23755293E+01 -2.47510585E+01  0.00000000E+00  1.23755293E+01  1.23755293E+01
 -2.47510585E+01  0.00000000E+00  1.23755293E+01  1.23755293E+01 -2.47510585E+01
  0.00000000E+00  1.23755293E+01  1.23755293E+01 -2.47510585E+01  0.00000000E+00
  1.23755293E+01  1.23755293E+01 -2.47510585E+01  0.00000000E+00  1.23755293E+01
  1.23755293E+01 -2.47510585E+01  0.00000000E+00  1.23755293E+01  1.23755293E+01
 -2.47510585E+01  0.00000000E+00  1.23755293E+01  1.23755293E+01 -2.47510585E+01
  0.00000000E+00  1.23755293E+01  1.23755293E+01 -2.47510585E+01  0.00000000E+00
  1.23755293E+01  1.23755293E+01 -2.47510585E+01  0.00000000E+00  1.23755293E+01
  1.23755293E+01 -2.47510585E+01  0.00000000E+00  1.23755293E+01  1.23755293E+01
 -2.47510585E+01  0.00000000E+00  1.23755293E+01  1.23755293E+01 -2.47510585E+01
  0.00000000E+00  1.23755293E+01  1.23755293E+01 -2.47510585E+01  0.00000000E+00
  1.23755293E+01  1.23755293E+01 -2.47510585E+01  0.00000000E+00  1.23755293E+01
  1.23755293E+01 -2.47510585E+01  0.00000000E+00  1.23755293E+01  1.23755293E+01
 -2.47510585E+01  0.00000000E+00  1.23755293E+01  1.23755293E+01 -2.47510585E+01
  0.00000000E+00  1.23755293E+01  1.23755293E+01 -2.47510585E+01  0.00000000E+00
  1.23755293E+01  1.23755293E+01 -2.47510585E+01  0.00000000E+00  1.23755293E+01
  1.23755293E+01 -2.47510585E+01  0.00000000E+00  1.23755293E+01  1.23755293E+01
 -2.47510585E+01  0.00000000E+00  1.23755293E+01  1.23755293E+01 -2.47510585E+01
  0.00000000E+00  1.23755293E+01  1.23755293E+01 -2.47510585E+01  0.00000000E+00
  1.23755293E+01  1.23755293E+01 -2.47510585E+01  0.00000000E+00  1.23755293E+01
  1.23755293E+01 -2.47510585E+01  0.00000000E+00  1.23755293E+01  1.23755293E+01
 -2.47510585E+01  0.00000000E+00  1.23755293E+01  1.23755293E+01 -2.47510585E+01
  0.00000000E+00  1.23755293E+01  1.23755293E+01 -2.47510585E+01  0.00000000E+00
  1.23755293E+01  1.23755293E+01 -2.47510585E+01  0.00000000E+00  1.23755293E+01
  1.23755293E+01 -2.47510585E+01  0.00000000E+00  1.23755293E+01  1.23755293E+01
 -2.47510585E+01  0.00000000E+00  1.23755293E+01  1.23755293E+01 -2.47510585E+01
  0.00000000E+00  1.23755293E+01  1.23755293E+01 -2.47510585E+01  0.00000000E+00
  1.23755293E+01  1.23755293E+01 -2.47510585E+01  0.00000000E+00  1.23755293E+01
  1.23755293E+01 -2.47510585E+01  0.00000000E+00  1.23755293E+01  1.23755293E+01
 -2.47510585E+01  0.00000000E+00  1.23755293E+01  1.23755293E+01 -2.47510585E+01
  0.00000000E+00  1.23755293E+01  1.23755293E+01 -2.47510585E+01  0.00000000E+00
  1.23755293E+01  1.23755293E+01 -2.47510585E+01  0.00000000E+00  1.23755293E+01
  1.23755293E+01 -2.47510585E+01  0.00000000E+00  1.23755293E+01  1.23755293E+01
 -2.47510585E+01  0.00000000E+00  1.23755293E+01  1.23755293E+01 -2.47510585E+01
  0.00000000E+00  1.23755293E+01  1.23755293E+01 -2.47510585E+01  0.00000000E+00
  1.23755293E+01  1.23755293E+01 -2.47510585E+01  0.00000000E+00  1.23755293E+01
  1.23755293E+01 -2.47510585E+01  0.00000000E+00  1.23755293E+01  1.23755293E+01
 -2.47510585E+01  0.00000000E+00  1.23755293E+01  1.23755293E+01 -2.47510585E+01
  0.00000000E+00  1.23755293E+01  1.23755293E+01 -2.47510585E+01  0.00000000E+00
  1.23755293E+01  1.23755293E+01 -2.47510585E+01  0.00000000E+00  1.23755293E+01
  1.23755293E+01 -2.47510585E+01  0.00000000E+00  1.23755293E+01  1.23755293E+01
 -2.47510585E+01  0.00000000E+00  1.23755293E+01  1.23755293E+01 -2.47510585E+01
  0.00000000E+00  1.23755293E+01  1.23755293E+01 -2.47510585E+01  0.00000000E+00
  1.23755293E+01  1.23755293E+01 -2.47510585E+01  0.00000000E+00  1.23755293E+01
  1.23755293E+01 -2.47510585E+01  0.00000000E+00  1.23755293E+01  1.23755293E+01
 -2.47510585E+01  0.00000000E+00  1.23755293E+01  1.23755293E+01 -2.47510585E+01
  0.00000000E+00  1.23755293E+01  1.23755293E+01 -2.47510585E+01  0.00000000E+00
  1.23755293E+01  1.23755293E+01 -2.47510585E+01  0.00000000E+00  1.23755293E+01
  1.23755293E+01 -2.47510585E+01  0.00000000E+00  1.23755293E+01  1.23755293E+01
 -2.47510585E+01  0.00000000E+00  1.23755293E+01  1.23755293E+01 -2.47510585E+01
  0.00000000E+00  1.23755293E+01  1.23755293E+01 -2.47510585E+01  0.00000000E+00
  1.23755293E+01  1.23755293E+01 -2.47510585E+01  0.00000000E+00  1.23755293E+01
  1.23755293E+01 -2.47510585E+01  0.00000000E+00  1.23755293E+01  1.23755293E+01
 -2.47510585E+01  0.00000000E+00  1.23755293E+01  1.23755293E+01 -2.47510585E+01
  0.00000000E+00  1.23755293E+01  1.23755293E+01 -2.47510585E+01  0.00000000E+00
  1.23755293E+01  1.23755293E+01 -2.47510585E+01  0.00000000E+00  1.23755293E+01
  1.23755293E+01 -2.47510585E+01  0.00000000E+00  1.23755293E+01  1.23755293E+01
 -2.47510585E+01  0.00000000E+00  1.23755293E+01  1.23755293E+01 -2.47510585E+01
  0.00000000E+00  1.23755293E+01  1.23755293E+01 -2.47510585E+01  0.00000000E+00
  1.23755293E+01  1.23755293E+01 -2.47510585E+01  0.00000000E+00  1.23755293E+01
  1.23755293E+01 -2.47510585E+01  0.00000000E+00  1.23755293E+01  1.23755293E+01
 -2.47510585E+01  0.00000000E+00  1.23755293E+01  1.23755293E+01 -2.47510585E+01
  0.00000000E+00  1.23755293E+01  1.23755293E+01 -2.47510585E+01  0.00000000E+00
  1.23755293E+01  1.23755293E+01 -2.47510585E+01  0.00000000E+00  1.23755293E+01
  1.23755293E+01 -2.47510585E+01  0.00000000E+00  1.23755293E+01  1.23755293E+01
 -2.47510585E+01  0.00000000E+00  1.23755293E+01  1.23755293E+01 -2.47510585E+01
  0.00000000E+00  1.23755293E+01  1.23755293E+01 -2.47510585E+01  0.00000000E+00
  1.23755293E+01  1.23755293E+01 -2.47510585E+01  0.00000000E+00  1.23755293E+01
  1.23755293E+01 -2.47510585E+01  0.00000000E+00  1.23755293E+01  1.23755293E+01
 -2.47510585E+01  0.00000000E+00  1.23755293E+01  1.23755293E+01 -2.47510585E+01
  0.00000000E+00  1.23755293E+01  1.23755293E+01 -2.47510585E+01  0.00000000E+00
  1.23755293E+01  1.23755293E+01 -2.47510585E+01  0.00000000E+00  1.23755293E+01
  1.23755293E+01 -2.47510585E+01  0.00000000E+00  1.23755293E+01  1.23755293E+01
 -2.47510585E+01  0.00000000E+00  1.23755293E+01  1.23755293E+01 -2.47510585E+01
  0.00000000E+00  1.23755293E+01  1.23755293E+01 -2.47510585E+01  0.00000000E+00
  1.23755293E+01  1.23755293E+01 -2.47510585E+01  0.00000000E+00  1.23755293E+01
  1.23755293E+01 -2.47510585E+01  0.00000000E+00  1.23755293E+01  1.23755293E+01
 -2.47510585E+01  0.00000000E+00  1.23755293E+01  1.23755293E+01 -2.47510585E+01
  0.00000000E+00  1.23755293E+01  1.23755293E+01 -2.47510585E+01  0.00000000E+00
  1.23755293E+01  1.23755293E+01 -2.47510585E+01  0.00000000E+00  1.23755293E+01
  1.23755293E+01 -2.47510585E+01  0.00000000E+00  1.23755293E+01  1.23755293E+01
 -2.47510585E+01  0.00000000E+00  1.23755293E+01  1.23755293E+01 -2.47510585E+01
  0.00000000E+00  1.23755293E+01  1.23755293E+01 -2.47510585E+01  0.00000000E+00
  1.23755293E+01  1.23755293E+01 -2.47510585E+01  0.00000000E+00  1.23755293E+01
  1.23755293E+01 -2.47510585E+01  0.00000000E+00  1.23755293E+01  1.23755293E+01
 -2.47510585E+01  0.00000000E+00  1.23755293E+01  1.23755293E+01 -2.47510585E+01
  0.00000000E+00  1.23755293E+01  1.23755293E+01 -2.47510585E+01  0.00000000E+00
  1.23755293E+01  1.23755293E+01 -2.47510585E+01  0.00000000E+00  1.23755293E+01
  1.23755293E+01 -2.47510585E+01  0.00000000E+00  1.23755293E+01  1.23755293E+01
 -2.47510585E+01  0.00000000E+00  1.23755293E+01  1.23755293E+01 -2.47510585E+01
  0.00000000E+00  1.23755293E+01  1.23755293E+01 -2.47510585E+01  0.00000000E+00
  1.23755293E+01  1.23755293E+01 -2.47510585E+01  0.00000000E+00  1.23755293E+01
  1.23755293E+01 -2.47510585E+01  0.00000000E+00  1.23755293E+01  1.23755293E+01
 -2.47510585E+01  0.00000000E+00  1.23755293E+01  1.23755293E+01 -2.47510585E+01
  0.00000000E+00  1.23755293E+01  1.23755293E+01 -2.47510585E+01  0.00000000E+00
  1.23755293E+01  1.23755293E+01 -2.47510585E+01  0.00000000E+00  1.23755293E+01
  1.23755293E+01 -2.47510585E+01  0.00000000E+00  1.23755293E+01  1.23755293E+01
 -2.47510585E+01  0.00000000E+00  1.23755293E+01  1.23755293E+01 -2.47510585E+01
  0.00000000E+00  1.23755293E+01  1.23755293E+01 -2.47510585E+01  0.00000000E+00
  1.23755293E+01  1.23755293E+01 -2.47510585E+01  0.00000000E+00  1.23755293E+01
  1.23755293E+01 -2.47510585E+01  0.00000000E+00  1.23755293E+01  1.23755293E+01
 -2.47510585E+01  0.00000000E+00  1.23755293E+01  1.23755293E+01 -2.47510585E+01
  0.00000000E+00  1.23755293E+01  1.23755293E+01 -2.47510585E+01  0.00000000E+00
  1.23755293E+01  1.23755293E+01 -2.47510585E+01  0.00000000E+00  1.23755293E+01
  1.23755293E+01 -2.47510585E+01  0.00000000E+00  1.23755293E+01  1.23755293E+01
 -2.47510585E+01  0.00000000E+00  1.23755293E+01  1.23755293E+01 -2.47510585E+01
  0.00000000E+00  1.23755293E+01  1.23755293E+01 -2.47510585E+01  0.00000000E+00
  1.23755293E+01  1.23755293E+01 -2.47510585E+01  0.00000000E+00  1.23755293E+01
  1.23755293E+01 -2.47510585E+01  0.00000000E+00  1.23755293E+01  1.23755293E+01
 -2.47510585E+01  0.00000000E+00  1.23755293E+01  1.23755293E+01 -2.47510585E+01
  0.00000000E+00  1.23755293E+01  1.23755293E+01 -2.47510585E+01  0.00000000E+00
  1.23755293E+01  1.23755293E+01 -2.47510585E+01  0.00000000E+00  1.23755293E+01
  1.23755293E+01 -2.47510585E+01  0.00000000E+00  1.23755293E+01  1.23755293E+01
 -2.47510585E+01  0.00000000E+00  1.23755293E+01  1.23755293E+01 -2.47510585E+01
  0.00000000E+00  1.23755293E+01  1.23755293E+01 -2.47510585E+01  0.00000000E+00
  1.23755293E+01  1.23755293E+01 -2.47510585E+01  0.00000000E+00  1.23755293E+01
  1.23755293E+01 -2.47510585E+01  0.00000000E+00  1.23755293E+01  1.23755293E+01
 -2.47510585E+01  0.00000000E+00  1.23755293E+01  1.23755293E+01 -2.47510585E+01
  0.00000000E+00  1.23755293E+01  1.23755293E+01 -2.47510585E+01  0.00000000E+00
  1.23755293E+01  1.23755293E+01 -2.47510585E+01  0.00000000E+00  1.23755293E+01
  1.23755293E+01 -2.47510585E+01  0.00000000E+00  1.23755293E+01  1.23755293E+01
 -2.47510585E+01  0.00000000E+00  1.23755293E+01  1.23755293E+01 -2.47510585E+01
  0.00000000E+00  1.23755293E+01  1.23755293E+01 -2.47510585E+01  0.00000000E+00
  1.23755293E+01  1.23755293E+01 -2.47510585E+01  0.00000000E+00  1.23755293E+01
  1.23755293E+01 -2.47510585E+01  0.00000000E+00  1.23755293E+01  1.23755293E+01
 -2.47510585E+01  0.00000000E+00  1.23755293E+01  1.23755293E+01 -2.47510585E+01
  0.00000000E+00  1.23755293E+01  1.23755293E+01 -2.47510585E+01  0.00000000E+00
  1.23755293E+01  1.23755293E+01 -2.47510585E+01  0.00000000E+00  1.23755293E+01
  1.23755293E+01 -2.47510585E+01  0.00000000E+00  1.23755293E+01  1.23755293E+01
 -2.47510585E+01  0.00000000E+00  1.23755293E+01  1.23755293E+01 -2.47510585E+01
  0.00000000E+00  1.23755293E+01  1.23755293E+01 -2.47510585E+01  0.00000000E+00
  1.23755293E+01  1.23755293E+01 -2.47510585E+01  0.00000000E+00  1.23755293E+01
  1.23755293E+01 -2.47510585E+01  0.00000000E+00  1.23755293E+01  1.23755293E+01
 -2.47510585E+01  0.00000000E+00  1.23755293E+01  1.23755293E+01 -2.47510585E+01
  0.00000000E+00  1.23755293E+01  1.23755293E+01 -2.47510585E+01  0.00000000E+00
  1.23755293E+01  1.23755293E+01 -2.47510585E+01  0.00000000E+00  1.23755293E+01
  1.23755293E+01 -2.47510585E+01  0.00000000E+00  1.23755293E+01  1.23755293E+01
 -2.47510585E+01  0.00000000E+00  1.23755293E+01  1.23755293E+01 -2.47510585E+01
  0.00000000E+00  1.23755293E+01  1.23755293E+01 -2.47510585E+01  0.00000000E+00
  1.23755293E+01  1.23755293E+01 -2.47510585E+01  0.00000000E+00  1.23755293E+01
  1.23755293E+01 -2.47510585E+01  0.00000000E+00  1.23755293E+01  1.23755293E+01
 -2.47510585E+01  0.00000000E+00  1.23755293E+01  1.23755293E+01 -2.47510585E+01
  0.00000000E+00  1.23755293E+01  1.23755293E+01 -2.47510585E+01  0.00000000E+00
  1.23755293E+01  1.23755293E+01 -2.47510585E+01  0.00000000E+00  1.23755293E+01
  1.23755293E+01 -2.47510585E+01  0.00000000E+00  1.23755293E+01  1.23755293E+01
 -2.47510585E+01  0.00000000E+00  1.23755293E+01  1.23755293E+01 -2.47510585E+01
  0.00000000E+00  1.23755293E+01  1.23755293E+01 -2.47510585E+01  0.00000000E+00
  1.23755293E+01  1.23755293E+01 -2.47510585E+01  0.00000000E+00  1.23755293E+01
  1.23755293E+01 -2.47510585E+01  0.00000000E+00  1.23755293E+01  1.23755293E+01
 -2.47510585E+01  0.00000000E+00  1.23755293E+01  1.23755293E+01 -2.47510585E+01
  0.00000000E+00  1.23755293E+01  1.23755293E+01 -2.47510585E+01  0.00000000E+00
  1.23755293E+01  1.23755293E+01 -2.47510585E+01  0.00000000E+00  1.23755293E+01
  1.23755293E+01 -2.47510585E+01  0.00000000E+00  1.23755293E+01  1.23755293E+01
 -2.47510585E+01  0.00000000E+00  1.23755293E+01  1.23755293E+01 -2.47510585E+01
  0.00000000E+00  1.23755293E+01  1.23755293E+01 -2.47510585E+01  0.00000000E+00
  1.23755293E+01  1.23755293E+01 -2.47510585E+01  0.00000000E+00  1.23755293E+01
  1.23755293E+01 -2.47510585E+01  0.00000000E+00  1.23755293E+01  1.23755293E+01
 -2.47510585E+01  0.00000000E+00  1.23755293E+01  1.23755293E+01 -2.47510585E+01
  0.00000000E+00  1.23755293E+01  1.23755293E+01 -2.47510585E+01  0.00000000E+00
  1.23755293E+01  1.23755293E+01 -2.47510585E+01  0.00000000E+00  1.23755293E+01
  1.23755293E+01 -2.47510585E+01  0.00000000E+00  1.23755293E+01  1.23755293E+01
 -2.47510585E+01  0.00000000E+00  1.23755293E+01  1.23755293E+01 -2.47510585E+01
  0.00000000E+00  1.23755293E+01  1.23755293E+01 -2.47510585E+01  0.00000000E+00
  1.23755293E+01  1.23755293E+01 -2.47510585E+01  0.00000000E+00  1.23755293E+01
  1.23755293E+01 -2.47510585E+01  0.00000000E+00  1.23755293E+01  1.23755293E+01
 -2.47510585E+01  0.00000000E+00  1.23755293E+01  1.23755293E+01 -2.47510585E+01
  0.00000000E+00  1.23755293E+01  1.23755293E+01 -2.47510585E+01  0.00000000E+00
  1.23755293E+01  1.23755293E+01 -2.47510585E+01  0.00000000E+00  1.23755293E+01
  1.23755293E+01 -2.47510585E+01  0.00000000E+00  1.23755293E+01  1.23755293E+01
 -2.47510585E+01  0.00000000E+00  1.23755293E+01  1.23755293E+01 -2.47510585E+01
  0.00000000E+00  1.23755293E+01  1.23755293E+01 -2.47510585E+01  0.00000000E+00
  1.23755293E+01  1.23755293E+01 -2.47510585E+01  0.00000000E+00  1.23755293E+01
  1.23755293E+01 -2.47510585E+01  0.00000000E+00  1.23755293E+01  1.23755293E+01
 -2.47510585E+01  0.00000000E+00  1.23755293E+01  1.23755293E+01 -2.47510585E+01
  0.00000000E+00  1.23755293E+01  1.23755293E+01 -2.47510585E+01  0.00000000E+00
  1.23755293E+01  1.23755293E+01 -2.47510585E+01  0.00000000E+00  1.23755293E+01
  1.23755293E+01 -2.47510585E+01  0.00000000E+00  1.23755293E+01  1.23755293E+01
 -2.47510585E+01  0.00000000E+00  1.23755293E+01  1.23755293E+01 -2.47510585E+01
  0.00000000E+00  1.23755293E+01  1.23755293E+01 -2.47510585E+01  0.00000000E+00
  1.23755293E+01  1.23755293E+01 -2.47510585E+01  0.00000000E+00  1.23755293E+01
  1.23755293E+01 -2.47510585E+01  0.00000000E+00  1.23755293E+01  1.23755293E+01
 -2.47510585E+01  0.00000000E+00  1.23755293E+01  1.23755293E+01 -2.47510585E+01
  0.00000000E+00  1.23755293E+01  1.23755293E+01 -2.47510585E+01  0.00000000E+00
  1.23755293E+01  1.23755293E+01 -2.47510585E+01  0.00000000E+00  1.23755293E+01
  1.23755293E+01 -2.47510585E+01  0.00000000E+00  1.23755293E+01  1.23755293E+01
 -2.47510585E+01  0.00000000E+00  1.23755293E+01  1.23755293E+01 -2.47510585E+01
  0.00000000E+00  1.23755293E+01  1.23755293E+01 -2.47510585E+01  0.00000000E+00
  1.23755293E+01  1.23755293E+01 -2.47510585E+01  0.00000000E+00  1.23755293E+01
  1.23755293E+01 -2.47510585E+01  0.00000000E+00  1.23755293E+01  1.23755293E+01
 -2.47510585E+01  0.00000000E+00  1.23755293E+01  1.23755293E+01 -2.47510585E+01
  0.00000000E+00  1.23755293E+01  1.23755293E+01 -2.47510585E+01  0.00000000E+00
  1.23755293E+01  1.23755293E+01 -2.47510585E+01  0.00000000E+00  1.23755293E+01
  1.23755293E+01 -2.47510585E+01  0.00000000E+00  1.23755293E+01  1.23755293E+01
 -2.47510585E+01  0.00000000E+00  1.23755293E+01  1.23755293E+01 -2.47510585E+01
  0.00000000E+00  1.23755293E+01  1.23755293E+01 -2.47510585E+01  0.00000000E+00
  1.23755293E+01  1.23755293E+01 -2.47510585E+01  0.00000000E+00  1.23755293E+01
  1.23755293E+01 -2.47510585E+01  0.00000000E+00  1.23755293E+01  1.23755293E+01
 -2.47510585E+01  0.00000000E+00  1.23755293E+01  1.23755293E+01 -2.47510585E+01
  0.00000000E+00  1.23755293E+01  1.23755293E+01 -2.47510585E+01  0.00000000E+00
  1.23755293E+01  1.23755293E+01 -2.47510585E+01  0.00000000E+00  1.23755293E+01
  1.23755293E+01 -2.47510585E+01  0.00000000E+00  1.23755293E+01  1.23755293E+01
 -2.47510585E+01  0.00000000E+00  1.23755293E+01  1.23755293E+01 -2.47510585E+01
  0.00000000E+00  1.23755293E+01  1.23755293E+01 -2.47510585E+01  0.00000000E+00
  1.23755293E+01  1.23755293E+01 -2.47510585E+01  0.00000000E+00  1.23755293E+01
  1.23755293E+01 -2.47510585E+01  0.00000000E+00  1.23755293E+01  1.23755293E+01
 -2.47510585E+01  0.00000000E+00  1.23755293E+01  1.23755293E+01 -2.47510585E+01
  0.00000000E+00  1.23755293E+01  1.23755293E+01 -2.47510585E+01  0.00000000E+00
  1.23755293E+01  1.23755293E+01 -2.47510585E+01  0.00000000E+00  1.23755293E+01
  1.23755293E+01 -2.47510585E+01  0.00000000E+00  1.23755293E+01  1.23755293E+01
 -2.47510585E+01  0.00000000E+00  1.23755293E+01  1.23755293E+01 -2.47510585E+01
  0.00000000E+00  1.23755293E+01  1.23755293E+01 -2.47510585E+01  0.00000000E+00
  1.23755293E+01  1.23755293E+01 -2.47510585E+01  0.00000000E+00  1.23755293E+01
  1.23755293E+01 -2.47510585E+01  0.00000000E+00  1.23755293E+01  1.23755293E+01
 -2.47510585E+01  0.00000000E+00  1.23755293E+01  1.23755293E+01 -2.47510585E+01
  0.00000000E+00  1.23755293E+01  1.23755293E+01 -2.47510585E+01  0.00000000E+00
  1.23755293E+01  1.23755293E+01 -2.47510585E+01  0.00000000E+00  1.23755293E+01
  1.23755293E+01 -2.47510585E+01  0.00000000E+00  1.23755293E+01  1.23755293E+01
 -2.47510585E+01  0.00000000E+00  1.23755293E+01  1.23755293E+01 -2.47510585E+01
  0.00000000E+00  1.23755293E+01  1.23755293E+01 -2.47510585E+01  0.00000000E+00
  1.23755293E+01  1.23755293E+01 -2.47510585E+01  0.00000000E+00  1.23755293E+01
  1.23755293E+01 -2.47510585E+01  0.00000000E+00  1.23755293E+01  1.23755293E+01
 -2.47510585E+01  0.00000000E+00  1.23755293E+01  1.23755293E+01 -2.47510585E+01
  0.00000000E+00  1.23755293E+01  1.23755293E+01 -2.47510585E+01  0.00000000E+00
  1.23755293E+01  1.23755293E+01 -2.47510585E+01  0.00000000E+00  1.23755293E+01
  1.23755293E+01 -2.47510585E+01  0.00000000E+00  1.23755293E+01  1.23755293E+01
 -2.47510585E+01  0.00000000E+00  1.23755293E+01  1.23755293E+01 -2.47510585E+01
  0.00000000E+00  1.23755293E+01  1.23755293E+01 -2.47510585E+01  0.00000000E+00
  1.23755293E+01  1.23755293E+01 -2.47510585E+01  0.00000000E+00  1.23755293E+01
  1.23755293E+01 -2.47510585E+01  0.00000000E+00  1.23755293E+01  1.23755293E+01
 -2.47510585E+01  0.00000000E+00  1.23755293E+01  1.23755293E+01 -2.47510585E+01
  0.00000000E+00  1.23755293E+01  1.23755293E+01 -2.47510585E+01  0.00000000E+00
  1.23755293E+01  1.23755293E+01 -2.47510585E+01  0.00000000E+00  1.23755293E+01
  1.23755293E+01 -2.47510585E+01  0.00000000E+00  1.23755293E+01  1.23755293E+01
 -2.47510585E+01  0.00000000E+00  1.23755293E+01  1.23755293E+01 -2.47510585E+01
  0.00000000E+00  1.23755293E+01  1.23755293E+01 -2.47510585E+01  0.00000000E+00
  1.23755293E+01  1.23755293E+01 -2.47510585E+01  0.00000000E+00  1.23755293E+01
  1.23755293E+01 -2.47510585E+01  0.00000000E+00  1.23755293E+01  1.23755293E+01
 -2.47510585E+01  0.00000000E+00  1.23755293E+01  1.23755293E+01 -2.47510585E+01
  0.00000000E+00  1.23755293E+01  1.23755293E+01 -2.47510585E+01  0.00000000E+00
  1.23755293E+01  1.23755293E+01 -2.47510585E+01  0.00000000E+00  1.23755293E+01
  1.23755293E+01 -2.47510585E+01  0.00000000E+00  1.23755293E+01  1.23755293E+01
 -2.47510585E+01  0.00000000E+00  1.23755293E+01  1.23755293E+01 -2.47510585E+01
  0.00000000E+00  1.23755293E+01  1.23755293E+01 -2.47510585E+01  0.00000000E+00
  1.23755293E+01  1.23755293E+01 -2.47510585E+01  0.00000000E+00  1.23755293E+01
  1.23755293E+01 -2.47510585E+01  0.00000000E+00  1.23755293E+01  1.23755293E+01
 -2.47510585E+01  0.00000000E+00  1.23755293E+01  1.23755293E+01 -2.47510585E+01
  0.00000000E+00  1.23755293E+01  1.23755293E+01 -2.47510585E+01  0.00000000E+00
  1.23755293E+01  1.23755293E+01 -2.47510585E+01  0.00000000E+00  1.23755293E+01
  1.23755293E+01 -2.47510585E+01  0.00000000E+00  1.23755293E+01  1.23755293E+01
 -2.47510585E+01  0.00000000E+00  1.23755293E+01  1.23755293E+01 -2.47510585E+01
  0.00000000E+00  1.23755293E+01  1.23755293E+01 -2.47510585E+01  0.00000000E+00
  1.23755293E+01  1.23755293E+01 -2.47510585E+01  0.00000000E+00  1.23755293E+01
  1.23755293E+01 -2.47510585E+01  0.00000000E+00  1.23755293E+01  1.23755293E+01
 -2.47510585E+01  0.00000000E+00  1.23755293E+01  1.23755293E+01 -2.47510585E+01
  0.00000000E+00  1.23755293E+01  1.23755293E+01 -2.47510585E+01  0.00000000E+00
  1.23755293E+01  1.23755293E+01 -2.47510585E+01  0.00000000E+00  1.23755293E+01
  1.23755293E+01 -2.47510585E+01  0.00000000E+00  1.23755293E+01  1.23755293E+01
 -2.47510585E+01  0.00000000E+00  1.23755293E+01  1.23755293E+01 -2.47510585E+01
  0.00000000E+00  1.23755293E+01  1.23755293E+01 -2.47510585E+01  0.00000000E+00
  1.23755293E+01  1.23755293E+01 -2.47510585E+01  0.00000000E+00  1.23755293E+01
  1.23755293E+01 -2.47510585E+01  0.00000000E+00  1.23755293E+01  1.23755293E+01
 -2.47510585E+01  0.00000000E+00  1.23755293E+01  1.23755293E+01 -2.47510585E+01
  0.00000000E+00  1.23755293E+01  1.23755293E+01 -2.47510585E+01  0.00000000E+00
  1.23755293E+01  1.23755293E+01 -2.47510585E+01  0.00000000E+00  1.23755293E+01
  1.23755293E+01 -2.47510585E+01  0.00000000E+00  1.23755293E+01  1.23755293E+01
 -2.47510585E+01  0.00000000E+00  1.23755293E+01  1.23755293E+01 -2.47510585E+01
  0.00000000E+00  1.23755293E+01  1.23755293E+01 -2.47510585E+01  0.00000000E+00
  1.23755293E+01  1.23755293E+01 -2.47510585E+01  0.00000000E+00  1.23755293E+01
  1.23755293E+01 -2.47510585E+01  0.00000000E+00  1.23755293E+01  1.23755293E+01
 -2.47510585E+01  0.00000000E+00  1.23755293E+01  1.23755293E+01 -2.47510585E+01
  0.00000000E+00  1.23755293E+01  1.23755293E+01 -2.47510585E+01  0.00000000E+00
  1.23755293E+01  1.23755293E+01 -2.47510585E+01  0.00000000E+00  1.23755293E+01
  1.23755293E+01 -2.47510585E+01  0.00000000E+00  1.23755293E+01  1.23755293E+01
 -2.47510585E+01  0.00000000E+00  1.23755293E+01  1.23755293E+01 -2.47510585E+01
  0.00000000E+00  1.23755293E+01  1.23755293E+01 -2.47510585E+01  0.00000000E+00
  1.23755293E+01  1.23755293E+01 -2.47510585E+01  0.00000000E+00  1.23755293E+01
  1.23755293E+01 -2.47510585E+01  0.00000000E+00  1.23755293E+01  1.23755293E+01
 -2.47510585E+01  0.00000000E+00  1.23755293E+01  1.23755293E+01 -2.47510585E+01
  0.00000000E+00  1.23755293E+01  1.23755293E+01 -2.47510585E+01  0.00000000E+00
  1.23755293E+01  1.23755293E+01 -2.47510585E+01  0.00000000E+00  1.23755293E+01
  1.23755293E+01 -2.47510585E+01  0.00000000E+00  1.23755293E+01  1.23755293E+01
 -2.47510585E+01  0.00000000E+00  1.23755293E+01  1.23755293E+01 -2.47510585E+01
  0.00000000E+00  1.23755293E+01  1.23755293E+01 -2.47510585E+01  0.00000000E+00
  1.23755293E+01  1.23755293E+01 -2.47510585E+01  0.00000000E+00  1.23755293E+01
  1.23755293E+01 -2.47510585E+01  0.00000000E+00  1.23755293E+01  1.23755293E+01
 -2.47510585E+01  0.00000000E+00  1.23755293E+01  1.23755293E+01 -2.47510585E+01
  0.00000000E+00  1.23755293E+01  1.23755293E+01 -2.47510585E+01  0.00000000E+00
  1.23755293E+01  1.23755293E+01 -2.47510585E+01  0.00000000E+00  1.23755293E+01
  1.23755293E+01 -2.47510585E+01  0.00000000E+00  1.23755293E+01  1.23755293E+01
 -2.47510585E+01  0.00000000E+00  1.23755293E+01  1.23755293E+01 -2.47510585E+01
  0.00000000E+00  1.23755293E+01  1.23755293E+01 -2.47510585E+01  0.00000000E+00
  1.23755293E+01  1.23755293E+01 -2.47510585E+01  0.00000000E+00  1.23755293E+01
  1.23755293E+01 -2.47510585E+01  0.00000000E+00  1.23755293E+01  1.23755293E+01
 -2.47510585E+01  0.00000000E+00  1.23755293E+01  1.23755293E+01 -2.47510585E+01
  0.00000000E+00  1.23755293E+01  1.23755293E+01 -2.47510585E+01  0.00000000E+00
  1.23755293E+01  1.23755293E+01 -2.47510585E+01  0.00000000E+00  1.23755293E+01
  1.23755293E+01 -2.47510585E+01  0.00000000E+00  1.23755293E+01  1.23755293E+01
 -2.47510585E+01  0.00000000E+00  1.23755293E+01  1.23755293E+01 -2.47510585E+01
  0.00000000E+00  1.23755293E+01  1.23755293E+01 -2.47510585E+01  0.00000000E+00
  1.23755293E+01  1.23755293E+01 -2.47510585E+01  0.00000000E+00  1.23755293E+01
  1.23755293E+01 -2.47510585E+01  0.00000000E+00  1.23755293E+01  1.23755293E+01
 -2.47510585E+01  0.00000000E+00  1.23755293E+01  1.23755293E+01 -2.47510585E+01
  0.00000000E+00  1.23755293E+01  1.23755293E+01 -2.47510585E+01  0.00000000E+00
  1.23755293E+01  1.23755293E+01 -2.47510585E+01  0.00000000E+00  1.23755293E+01
  1.23755293E+01 -2.47510585E+01  0.00000000E+00  1.23755293E+01  1.23755293E+01
 -2.47510585E+01  0.00000000E+00  1.23755293E+01  1.23755293E+01 -2.47510585E+01
  0.00000000E+00  1.23755293E+01  1.23755293E+01 -2.47510585E+01  0.00000000E+00
  1.23755293E+01  1.23755293E+01 -2.47510585E+01  0.00000000E+00  1.23755293E+01
  1.23755293E+01 -2.47510585E+01  0.00000000E+00  1.23755293E+01  1.23755293E+01
 -2.47510585E+01  0.00000000E+00  1.23755293E+01  1.23755293E+01 -2.47510585E+01
  0.00000000E+00  1.23755293E+01  1.23755293E+01 -2.47510585E+01  0.00000000E+00
  1.23755293E+01  1.23755293E+01 -2.47510585E+01  0.00000000E+00  1.23755293E+01
  1.23755293E+01 -2.47510585E+01  0.00000000E+00  1.23755293E+01  1.23755293E+01
 -2.47510585E+01  0.00000000E+00  1.23755293E+01  1.23755293E+01 -2.47510585E+01
  0.00000000E+00  1.23755293E+01  1.23755293E+01 -2.47510585E+01  0.00000000E+00
  1.23755293E+01  1.23755293E+01 -2.47510585E+01  0.00000000E+00  1.23755293E+01
  1.23755293E+01 -2.47510585E+01  0.00000000E+00  1.23755293E+01  1.23755293E+01
 -2.47510585E+01  0.00000000E+00  1.23755293E+01  1.23755293E+01 -2.47510585E+01
  0.00000000E+00  1.23755293E+01  1.23755293E+01 -2.47510585E+01  0.00000000E+00
  1.23755293E+01  1.23755293E+01 -2.47510585E+01  0.00000000E+00  1.23755293E+01
  1.23755293E+01 -2.47510585E+01  0.00000000E+00  1.23755293E+01  1.23755293E+01
 -2.47510585E+01  0.00000000E+00  1.23755293E+01  1.23755293E+01 -2.47510585E+01
  0.00000000E+00  1.23755293E+01  1.23755293E+01 -2.47510585E+01  0.00000000E+00
  1.23755293E+01  1.23755293E+01 -2.47510585E+01  0.00000000E+00  1.23755293E+01
  1.23755293E+01 -2.47510585E+01  0.00000000E+00  1.23755293E+01  1.23755293E+01
 -2.47510585E+01  0.00000000E+00  1.23755293E+01  1.23755293E+01 -2.47510585E+01
  0.00000000E+00  1.23755293E+01  1.23755293E+01 -2.47510585E+01  0.00000000E+00
  1.23755293E+01  1.23755293E+01 -2.47510585E+01  0.00000000E+00  1.23755293E+01
  1.23755293E+01 -2.47510585E+01  0.00000000E+00  1.23755293E+01  1.23755293E+01
 -2.47510585E+01  0.00000000E+00  1.23755293E+01  1.23755293E+01 -2.47510585E+01
  0.00000000E+00  1.23755293E+01  1.23755293E+01 -2.47510585E+01  0.00000000E+00
  1.23755293E+01  1.23755293E+01 -2.47510585E+01  0.00000000E+00  1.23755293E+01
  1.23755293E+01 -2.47510585E+01  0.00000000E+00  1.23755293E+01  1.23755293E+01
 -2.47510585E+01  0.00000000E+00  1.23755293E+01  1.23755293E+01 -2.47510585E+01
  0.00000000E+00  1.23755293E+01  1.23755293E+01 -2.47510585E+01  0.00000000E+00
  1.23755293E+01  1.23755293E+01 -2.47510585E+01  0.00000000E+00  1.23755293E+01
  1.23755293E+01 -2.47510585E+01  0.00000000E+00  1.23755293E+01  1.23755293E+01
 -2.47510585E+01  0.00000000E+00  1.23755293E+01  1.23755293E+01 -2.47510585E+01
  0.00000000E+00  1.23755293E+01  1.23755293E+01 -2.47510585E+01  0.00000000E+00
  1.23755293E+01  1.23755293E+01 -2.47510585E+01  0.00000000E+00  1.23755293E+01
  1.23755293E+01 -2.47510585E+01  0.00000000E+00  1.23755293E+01  1.23755293E+01
 -2.47510585E+01  0.00000000E+00  1.23755293E+01  1.23755293E+01 -2.47510585E+01
  0.00000000E+00  1.23755293E+01  1.23755293E+01 -2.47510585E+01  0.00000000E+00
  1.23755293E+01  1.23755293E+01 -2.47510585E+01  0.00000000E+00  1.23755293E+01
  1.23755293E+01 -2.47510585E+01  0.00000000E+00  1.23755293E+01  1.23755293E+01
 -2.47510585E+01  0.00000000E+00  1.23755293E+01  1.23755293E+01 -2.47510585E+01
  0.00000000E+00  1.23755293E+01  1.23755293E+01 -2.47510585E+01  0.00000000E+00
  1.23755293E+01  1.23755293E+01 -2.47510585E+01  0.00000000E+00  1.23755293E+01
  1.23755293E+01 -2.47510585E+01  0.00000000E+00  1.23755293E+01  1.23755293E+01
 -2.47510585E+01  0.00000000E+00  1.23755293E+01  1.23755293E+01 -2.47510585E+01
  0.00000000E+00  1.23755293E+01  1.23755293E+01 -2.47510585E+01  0.00000000E+00
  1.23755293E+01  1.23755293E+01 -2.47510585E+01  0.00000000E+00  1.23755293E+01
  1.23755293E+01 -2.47510585E+01  0.00000000E+00  1.23755293E+01  1.23755293E+01
 -2.47510585E+01  0.00000000E+00  1.23755293E+01  1.23755293E+01 -2.47510585E+01
  0.00000000E+00  1.23755293E+01  1.23755293E+01 -2.47510585E+01  0.00000000E+00
  1.23755293E+01  1.23755293E+01 -2.47510585E+01  0.00000000E+00  1.23755293E+01
  1.23755293E+01 -2.47510585E+01  0.00000000E+00  1.23755293E+01  1.23755293E+01
 -2.47510585E+01  0.00000000E+00  1.23755293E+01  1.23755293E+01 -2.47510585E+01
  0.00000000E+00  1.23755293E+01  1.23755293E+01 -2.47510585E+01  0.00000000E+00
  1.23755293E+01  1.23755293E+01 -2.47510585E+01  0.00000000E+00  1.23755293E+01
  1.23755293E+01 -2.47510585E+01  0.00000000E+00  1.23755293E+01  1.23755293E+01
 -2.47510585E+01  0.00000000E+00  1.23755293E+01  1.23755293E+01 -2.47510585E+01
  0.00000000E+00  1.23755293E+01  1.23755293E+01 -2.47510585E+01  0.00000000E+00
  1.23755293E+01  1.23755293E+01 -2.47510585E+01  0.00000000E+00  1.23755293E+01
  1.23755293E+01 -2.47510585E+01  0.00000000E+00  1.23755293E+01  1.23755293E+01
 -2.47510585E+01  0.00000000E+00  1.23755293E+01  1.23755293E+01 -2.47510585E+01
  0.00000000E+00  1.23755293E+01  1.23755293E+01 -2.47510585E+01  0.00000000E+00
  1.23755293E+01  1.23755293E+01 -2.47510585E+01  0.00000000E+00  1.23755293E+01
  1.23755293E+01 -2.47510585E+01  0.00000000E+00  1.23755293E+01  1.23755293E+01
 -2.47510585E+01  0.00000000E+00  1.23755293E+01  1.23755293E+01 -2.47510585E+01
  0.00000000E+00  1.23755293E+01  1.23755293E+01 -2.47510585E+01  0.00000000E+00
  1.23755293E+01  1.23755293E+01 -2.47510585E+01  0.00000000E+00  1.23755293E+01
  1.23755293E+01 -2.47510585E+01  0.00000000E+00  1.23755293E+01  1.23755293E+01
 -2.47510585E+01  0.00000000E+00  1.23755293E+01  1.23755293E+01 -2.47510585E+01
  0.00000000E+00  1.23755293E+01  1.23755293E+01 -2.47510585E+01  0.00000000E+00
  1.23755293E+01  1.23755293E+01 -2.47510585E+01  0.00000000E+00  1.23755293E+01
  1.23755293E+01 -2.47510585E+01  0.00000000E+00  1.23755293E+01  1.23755293E+01
 -2.47510585E+01  0.00000000E+00  1.23755293E+01  1.23755293E+01 -2.47510585E+01
  0.00000000E+00  1.23755293E+01  1.23755293E+01 -2.47510585E+01  0.00000000E+00
  1.23755293E+01  1.23755293E+01 -2.47510585E+01  0.00000000E+00  1.23755293E+01
  1.23755293E+01 -2.47510585E+01  0.00000000E+00  1.23755293E+01  1.23755293E+01
 -2.47510585E+01  0.00000000E+00  1.23755293E+01  1.23755293E+01 -2.47510585E+01
  0.00000000E+00  1.23755293E+01  1.23755293E+01 -2.47510585E+01  0.00000000E+00
  1.23755293E+01  1.23755293E+01 -2.47510585E+01  0.00000000E+00  1.23755293E+01
  1.23755293E+01 -2.47510585E+01  0.00000000E+00  1.23755293E+01  1.23755293E+01
 -2.47510585E+01  0.00000000E+00  1.23755293E+01  1.23755293E+01 -2.47510585E+01
  0.00000000E+00  1.23755293E+01  1.23755293E+01 -2.47510585E+01  0.00000000E+00
  1.23755293E+01  1.23755293E+01 -2.47510585E+01  0.00000000E+00  1.23755293E+01
  1.23755293E+01 -2.47510585E+01  0.00000000E+00  1.23755293E+01  1.23755293E+01
 -2.47510585E+01  0.00000000E+00  1.23755293E+01  1.23755293E+01 -2.47510585E+01
  0.00000000E+00  1.23755293E+01  1.23755293E+01 -2.47510585E+01  0.00000000E+00
  1.23755293E+01  1.23755293E+01 -2.47510585E+01  0.00000000E+00  1.23755293E+01
  1.23755293E+01 -2.47510585E+01  0.00000000E+00  1.23755293E+01  1.23755293E+01
 -2.47510585E+01  0.00000000E+00  1.23755293E+01  1.23755293E+01 -2.47510585E+01
  0.00000000E+00  1.23755293E+01  1.23755293E+01 -2.47510585E+01  0.00000000E+00
  1.23755293E+01  1.23755293E+01 -2.47510585E+01  0.00000000E+00  1.23755293E+01
  1.23755293E+01 -2.47510585E+01  0.00000000E+00  1.23755293E+01  1.23755293E+01
 -2.47510585E+01  0.00000000E+00  1.23755293E+01  1.23755293E+01 -2.47510585E+01
  0.00000000E+00  1.23755293E+01  1.23755293E+01 -2.47510585E+01  0.00000000E+00
  1.23755293E+01  1.23755293E+01 -2.47510585E+01  0.00000000E+00  1.23755293E+01
  1.23755293E+01 -2.47510585E+01  0.00000000E+00  1.23755293E+01  1.23755293E+01
 -2.47510585E+01  0.00000000E+00  1.23755293E+01  1.23755293E+01 -2.47510585E+01
  0.00000000E+00  1.23755293E+01  1.23755293E+01 -2.47510585E+01  0.00000000E+00
  1.23755293E+01  1.23755293E+01 -2.47510585E+01  0.00000000E+00  1.23755293E+01
  1.23755293E+01 -2.47510585E+01  0.00000000E+00  1.23755293E+01  1.23755293E+01
 -2.47510585E+01  0.00000000E+00  1.23755293E+01  1.23755293E+01 -2.47510585E+01
  0.00000000E+00  1.23755293E+01  1.23755293E+01 -2.47510585E+01  0.00000000E+00
  1.23755293E+01  1.23755293E+01 -2.47510585E+01  0.00000000E+00  1.23755293E+01
  1.23755293E+01 -2.47510585E+01  0.00000000E+00  1.23755293E+01  1.23755293E+01
 -2.47510585E+01  0.00000000E+00  1.23755293E+01  1.23755293E+01 -2.47510585E+01
  0.00000000E+00  1.23755293E+01  1.23755293E+01 -2.47510585E+01  0.00000000E+00
  1.23755293E+01  1.23755293E+01 -2.47510585E+01  0.00000000E+00  1.23755293E+01
  1.23755293E+01 -2.47510585E+01  0.00000000E+00  1.23755293E+01  1.23755293E+01
 -2.47510585E+01  0.00000000E+00  1.23755293E+01  1.23755293E+01 -2.47510585E+01
  0.00000000E+00  1.23755293E+01  1.23755293E+01 -2.47510585E+01  0.00000000E+00
  1.23755293E+01  1.23755293E+01 -2.47510585E+01  0.00000000E+00  1.23755293E+01
  1.23755293E+01 -2.47510585E+01  0.00000000E+00  1.23755293E+01  1.23755293E+01
 -2.47510585E+01  0.00000000E+00  1.23755293E+01  1.23755293E+01 -2.47510585E+01
  0.00000000E+00  1.23755293E+01  1.23755293E+01 -2.47510585E+01  0.00000000E+00
  1.23755293E+01  1.23755293E+01 -2.47510585E+01  0.00000000E+00  1.23755293E+01
  1.23755293E+01 -2.47510585E+01  0.00000000E+00  1.23755293E+01  1.23755293E+01
 -2.47510585E+01  0.00000000E+00  1.23755293E+01  1.23755293E+01 -2.47510585E+01
  0.00000000E+00  1.23755293E+01  1.23755293E+01 -2.47510585E+01  0.00000000E+00
  1.23755293E+01  1.23755293E+01 -2.47510585E+01  0.00000000E+00  1.23755293E+01
  1.23755293E+01 -2.47510585E+01  0.00000000E+00  1.23755293E+01  1.23755293E+01
 -2.47510585E+01  0.00000000E+00  1.23755293E+01  1.23755293E+01 -2.47510585E+01
  0.00000000E+00  1.23755293E+01  1.23755293E+01 -2.47510585E+01  0.00000000E+00
  1.23755293E+01  1.23755293E+01 -2.47510585E+01  0.00000000E+00  1.23755293E+01
  1.23755293E+01 -2.47510585E+01  0.00000000E+00  1.23755293E+01  1.23755293E+01
 -2.47510585E+01  0.00000000E+00  1.23755293E+01  1.23755293E+01 -2.47510585E+01
  0.00000000E+00  1.23755293E+01  1.23755293E+01 -2.47510585E+01  0.00000000E+00
  1.23755293E+01  1.23755293E+01 -2.47510585E+01  0.00000000E+00  1.23755293E+01
  1.23755293E+01 -2.47510585E+01  0.00000000E+00  1.23755293E+01  1.23755293E+01
 -2.47510585E+01  0.00000000E+00  1.23755293E+01  1.23755293E+01 -2.47510585E+01
  0.00000000E+00  1.23755293E+01  1.23755293E+01 -2.47510585E+01  0.00000000E+00
  1.23755293E+01  1.23755293E+01 -2.47510585E+01  0.00000000E+00  1.23755293E+01
  1.23755293E+01 -2.47510585E+01  0.00000000E+00  1.23755293E+01  1.23755293E+01
 -2.47510585E+01  0.00000000E+00  1.23755293E+01  1.23755293E+01 -2.47510585E+01
  0.00000000E+00  1.23755293E+01  1.23755293E+01 -2.47510585E+01  0.00000000E+00
  1.23755293E+01  1.23755293E+01 -2.47510585E+01  0.00000000E+00  1.23755293E+01
  1.23755293E+01 -2.47510585E+01  0.00000000E+00  1.23755293E+01  1.23755293E+01
 -2.47510585E+01  0.00000000E+00  1.23755293E+01  1.23755293E+01 -2.47510585E+01
  0.00000000E+00  1.23755293E+01  1.23755293E+01 -2.47510585E+01  0.00000000E+00
  1.23755293E+01  1.23755293E+01 -2.47510585E+01  0.00000000E+00  1.23755293E+01
  1.23755293E+01 -2.47510585E+01  0.00000000E+00  1.23755293E+01  1.23755293E+01
 -2.47510585E+01  0.00000000E+00  1.23755293E+01  1.23755293E+01 -2.47510585E+01
  0.00000000E+00  1.23755293E+01  1.23755293E+01 -2.47510585E+01  0.00000000E+00
  1.23755293E+01  1.23755293E+01 -2.47510585E+01  0.00000000E+00  1.23755293E+01
  1.23755293E+01 -2.47510585E+01  0.00000000E+00  1.23755293E+01  1.23755293E+01
 -2.47510585E+01  0.00000000E+00  1.23755293E+01  1.23755293E+01 -2.47510585E+01
  0.00000000E+00  1.23755293E+01  1.23755293E+01 -2.47510585E+01  0.00000000E+00
  1.23755293E+01  1.23755293E+01 -2.47510585E+01  0.00000000E+00  1.23755293E+01
  1.23755293E+01 -2.47510585E+01  0.00000000E+00  1.23755293E+01  1.23755293E+01
 -2.47510585E+01  0.00000000E+00  1.23755293E+01  1.23755293E+01 -2.47510585E+01
  0.00000000E+00  1.23755293E+01  1.23755293E+01 -2.47510585E+01  0.00000000E+00
  1.23755293E+01  1.23755293E+01 -2.47510585E+01  0.00000000E+00  1.23755293E+01
  1.23755293E+01 -2.47510585E+01  0.00000000E+00  1.23755293E+01  1.23755293E+01
 -2.47510585E+01  0.00000000E+00  1.23755293E+01  1.23755293E+01 -2.47510585E+01
  0.00000000E+00  1.23755293E+01  1.23755293E+01 -2.47510585E+01  0.00000000E+00
  1.23755293E+01  1.23755293E+01 -2.47510585E+01  0.00000000E+00  1.23755293E+01
  1.23755293E+01 -2.47510585E+01  0.00000000E+00  1.23755293E+01  1.23755293E+01
 -2.47510585E+01  0.00000000E+00  1.23755293E+01  1.23755293E+01 -2.47510585E+01
  0.00000000E+00  1.23755293E+01  1.23755293E+01 -2.47510585E+01  0.00000000E+00
  1.23755293E+01  1.23755293E+01 -2.47510585E+01  0.00000000E+00  1.23755293E+01
  1.23755293E+01 -2.47510585E+01  0.00000000E+00  1.23755293E+01  1.23755293E+01
 -2.47510585E+01  0.00000000E+00  1.23755293E+01  1.23755293E+01 -2.47510585E+01
  0.00000000E+00  1.23755293E+01  1.23755293E+01 -2.47510585E+01  0.00000000E+00
  1.23755293E+01  1.23755293E+01 -2.47510585E+01  0.00000000E+00  1.23755293E+01
  1.23755293E+01 -2.47510585E+01  0.00000000E+00  1.23755293E+01  1.23755293E+01
 -2.47510585E+01  0.00000000E+00  1.23755293E+01  1.23755293E+01 -2.47510585E+01
  0.00000000E+00  1.23755293E+01  1.23755293E+01 -2.47510585E+01  0.00000000E+00
  1.23755293E+01  1.23755293E+01 -2.47510585E+01  0.00000000E+00  1.23755293E+01
  1.23755293E+01 -2.47510585E+01  0.00000000E+00  1.23755293E+01  1.23755293E+01
 -2.47510585E+01  0.00000000E+00  1.23755293E+01  1.23755293E+01 -2.47510585E+01
  0.00000000E+00  1.23755293E+01  1.23755293E+01 -2.47510585E+01  0.00000000E+00
  1.23755293E+01  1.23755293E+01 -2.47510585E+01  0.00000000E+00  1.23755293E+01
  1.23755293E+01 -2.47510585E+01  0.00000000E+00  1.23755293E+01  1.23755293E+01
 -2.47510585E+01  0.00000000E+00  1.23755293E+01  1.23755293E+01 -2.47510585E+01
  0.00000000E+00  1.23755293E+01  1.23755293E+01 -2.47510585E+01  0.00000000E+00
  1.23755293E+01  1.23755293E+01 -2.47510585E+01  0.00000000E+00  1.23755293E+01
  1.23755293E+01 -2.47510585E+01  0.00000000E+00  1.23755293E+01  1.23755293E+01
 -2.47510585E+01  0.00000000E+00  1.23755293E+01  1.23755293E+01 -2.47510585E+01
  0.00000000E+00  1.23755293E+01  1.23755293E+01 -2.47510585E+01  0.00000000E+00
  1.23755293E+01  1.23755293E+01 -2.47510585E+01  0.00000000E+00  1.23755293E+01
  1.23755293E+01 -2.47510585E+01  0.00000000E+00  1.23755293E+01  1.23755293E+01
 -2.47510585E+01  0.00000000E+00  1.23755293E+01  1.23755293E+01 -2.47510585E+01
  0.00000000E+00  1.23755293E+01  1.23755293E+01 -2.47510585E+01  0.00000000E+00
  1.23755293E+01  1.23755293E+01 -2.47510585E+01  0.00000000E+00  1.23755293E+01
  1.23755293E+01 -2.47510585E+01  0.00000000E+00  1.23755293E+01  1.23755293E+01
 -2.47510585E+01  0.00000000E+00  1.23755293E+01  1.23755293E+01 -2.47510585E+01
  0.00000000E+00  1.23755293E+01  1.23755293E+01 -2.47510585E+01  0.00000000E+00
  1.23755293E+01  1.23755293E+01 -2.47510585E+01  0.00000000E+00  1.23755293E+01
  1.23755293E+01 -2.47510585E+01  0.00000000E+00  1.23755293E+01  1.23755293E+01
 -2.47510585E+01  0.00000000E+00  1.23755293E+01  1.23755293E+01 -2.47510585E+01
  0.00000000E+00  1.23755293E+01  1.23755293E+01 -2.47510585E+01  0.00000000E+00
  1.23755293E+01  1.23755293E+01 -2.47510585E+01  0.00000000E+00  1.23755293E+01
  1.23755293E+01 -2.47510585E+01  0.00000000E+00  1.23755293E+01  1.23755293E+01
 -2.47510585E+01  0.00000000E+00  1.23755293E+01  1.23755293E+01 -2.47510585E+01
  0.00000000E+00  1.23755293E+01  1.23755293E+01 -2.47510585E+01  0.00000000E+00
  1.23755293E+01  1.23755293E+01 -2.47510585E+01  0.00000000E+00  1.23755293E+01
  1.23755293E+01 -2.47510585E+01  0.00000000E+00  1.23755293E+01  1.23755293E+01
 -2.47510585E+01  0.00000000E+00  1.23755293E+01  1.23755293E+01 -2.47510585E+01
  0.00000000E+00  1.23755293E+01  1.23755293E+01 -2.47510585E+01  0.00000000E+00
  1.23755293E+01  1.23755293E+01 -2.47510585E+01  0.00000000E+00  1.23755293E+01
  1.23755293E+01 -2.47510585E+01  0.00000000E+00  1.23755293E+01  1.23755293E+01
 -2.47510585E+01  0.00000000E+00  1.23755293E+01  1.23755293E+01 -2.47510585E+01
  0.00000000E+00  1.23755293E+01  1.23755293E+01 -2.47510585E+01  0.00000000E+00
  1.23755293E+01  1.23755293E+01 -2.47510585E+01  0.00000000E+00  1.23755293E+01
  1.23755293E+01 -2.47510585E+01  0.00000000E+00  1.23755293E+01  1.23755293E+01
 -2.47510585E+01  0.00000000E+00  1.23755293E+01  1.23755293E+01 -2.47510585E+01
  0.00000000E+00  1.23755293E+01  1.23755293E+01 -2.47510585E+01  0.00000000E+00
  1.23755293E+01  1.23755293E+01 -2.47510585E+01  0.00000000E+00  1.23755293E+01
  1.23755293E+01 -2.47510585E+01  0.00000000E+00  1.23755293E+01  1.23755293E+01
 -2.47510585E+01  0.00000000E+00  1.23755293E+01  1.23755293E+01 -2.47510585E+01
  0.00000000E+00  1.23755293E+01  1.23755293E+01 -2.47510585E+01  0.00000000E+00
  1.23755293E+01  1.23755293E+01 -2.47510585E+01  0.00000000E+00  1.23755293E+01
  1.23755293E+01 -2.47510585E+01  0.00000000E+00  1.23755293E+01  1.23755293E+01
 -2.47510585E+01  0.00000000E+00  1.23755293E+01  1.23755293E+01 -2.47510585E+01
  0.00000000E+00  1.23755293E+01  1.23755293E+01 -2.47510585E+01  0.00000000E+00
  1.23755293E+01  1.23755293E+01 -2.47510585E+01  0.00000000E+00  1.23755293E+01
  1.23755293E+01 -2.47510585E+01  0.00000000E+00  1.23755293E+01  1.23755293E+01
 -2.47510585E+01  0.00000000E+00  1.23755293E+01  1.23755293E+01 -2.47510585E+01
  0.00000000E+00  1.23755293E+01  1.23755293E+01 -2.47510585E+01  0.00000000E+00
  1.23755293E+01  1.23755293E+01 -2.47510585E+01  0.00000000E+00  1.23755293E+01
  1.23755293E+01 -2.47510585E+01  0.00000000E+00  1.23755293E+01  1.23755293E+01
 -2.47510585E+01  0.00000000E+00  1.23755293E+01  1.23755293E+01 -2.47510585E+01
  0.00000000E+00  1.23755293E+01  1.23755293E+01 -2.47510585E+01  0.00000000E+00
  1.23755293E+01  1.23755293E+01 -2.47510585E+01  0.00000000E+00  1.23755293E+01
  1.23755293E+01 -2.47510585E+01  0.00000000E+00  1.23755293E+01  1.23755293E+01
 -2.47510585E+01  0.00000000E+00  1.23755293E+01  1.23755293E+01 -2.47510585E+01
  0.00000000E+00  1.23755293E+01  1.23755293E+01 -2.47510585E+01  0.00000000E+00
  1.23755293E+01  1.23755293E+01 -2.47510585E+01  0.00000000E+00  1.23755293E+01
  1.23755293E+01 -2.47510585E+01  0.00000000E+00  1.23755293E+01  1.23755293E+01
 -2.47510585E+01  0.00000000E+00  1.23755293E+01  1.23755293E+01 -2.47510585E+01
  0.00000000E+00  1.23755293E+01  1.23755293E+01 -2.47510585E+01  0.00000000E+00
  1.23755293E+01  1.23755293E+01 -2.47510585E+01  0.00000000E+00  1.23755293E+01
  1.23755293E+01 -2.47510585E+01  0.00000000E+00  1.23755293E+01  1.23755293E+01
 -2.47510585E+01  0.00000000E+00  1.23755293E+01  1.23755293E+01 -2.47510585E+01
  0.00000000E+00  1.23755293E+01  1.23755293E+01 -2.47510585E+01  0.00000000E+00
  1.23755293E+01  1.23755293E+01 -2.47510585E+01  0.00000000E+00  1.23755293E+01
  1.23755293E+01 -2.47510585E+01  0.00000000E+00  1.23755293E+01  1.23755293E+01
 -2.47510585E+01  0.00000000E+00  1.23755293E+01  1.23755293E+01 -2.47510585E+01
  0.00000000E+00  1.23755293E+01  1.23755293E+01 -2.47510585E+01  0.00000000E+00
  1.23755293E+01  1.23755293E+01 -2.47510585E+01  0.00000000E+00  1.23755293E+01
  1.23755293E+01 -2.47510585E+01  0.00000000E+00  1.23755293E+01  1.23755293E+01
 -2.47510585E+01  0.00000000E+00  1.23755293E+01  1.23755293E+01 -2.47510585E+01
  0.00000000E+00  1.23755293E+01  1.23755293E+01 -2.47510585E+01  0.00000000E+00
  1.23755293E+01  1.23755293E+01 -2.47510585E+01  0.00000000E+00  1.23755293E+01
  1.23755293E+01 -2.47510585E+01  0.00000000E+00  1.23755293E+01  1.23755293E+01
 -2.47510585E+01  0.00000000E+00  1.23755293E+01  1.23755293E+01 -2.47510585E+01
  0.00000000E+00  1.23755293E+01  1.23755293E+01 -2.47510585E+01  0.00000000E+00
  1.23755293E+01  1.23755293E+01 -2.47510585E+01  0.00000000E+00  1.23755293E+01
  1.23755293E+01 -2.47510585E+01  0.00000000E+00  1.23755293E+01  1.23755293E+01
 -2.47510585E+01  0.00000000E+00  1.23755293E+01  1.23755293E+01 -2.47510585E+01
  0.00000000E+00  1.23755293E+01  1.23755293E+01 -2.47510585E+01  0.00000000E+00
  1.23755293E+01  1.23755293E+01 -2.47510585E+01  0.00000000E+00  1.23755293E+01
  1.23755293E+01 -2.47510585E+01  0.00000000E+00  1.23755293E+01  1.23755293E+01
 -2.47510585E+01  0.00000000E+00  1.23755293E+01  1.23755293E+01 -2.47510585E+01
  0.00000000E+00  1.23755293E+01  1.23755293E+01 -2.47510585E+01  0.00000000E+00
  1.23755293E+01  1.23755293E+01 -2.47510585E+01  0.00000000E+00  1.23755293E+01
  1.23755293E+01 -2.47510585E+01  0.00000000E+00  1.23755293E+01  1.23755293E+01
 -2.47510585E+01  0.00000000E+00  1.23755293E+01  1.23755293E+01 -2.47510585E+01
  0.00000000E+00  1.23755293E+01  1.23755293E+01 -2.47510585E+01  0.00000000E+00
  1.23755293E+01  1.23755293E+01 -2.47510585E+01  0.00000000E+00  1.23755293E+01
  1.23755293E+01 -2.47510585E+01  0.00000000E+00  1.23755293E+01  1.23755293E+01
 -2.47510585E+01  0.00000000E+00  1.23755293E+01  1.23755293E+01 -2.47510585E+01
  0.00000000E+00  1.23755293E+01  1.23755293E+01 -2.47510585E+01  0.00000000E+00
  1.23755293E+01  1.23755293E+01 -2.47510585E+01  0.00000000E+00  1.23755293E+01
  1.23755293E+01 -2.47510585E+01  0.00000000E+00  1.23755293E+01  1.23755293E+01
 -2.47510585E+01  0.00000000E+00  1.23755293E+01  1.23755293E+01 -2.47510585E+01
  0.00000000E+00  1.23755293E+01  1.23755293E+01 -2.47510585E+01  0.00000000E+00
  1.23755293E+01  1.23755293E+01 -2.47510585E+01  0.00000000E+00  1.23755293E+01
  1.23755293E+01 -2.47510585E+01  0.00000000E+00  1.23755293E+01  1.23755293E+01
 -2.47510585E+01  0.00000000E+00  1.23755293E+01  1.23755293E+01 -2.47510585E+01
  0.00000000E+00  1.23755293E+01  1.23755293E+01 -2.47510585E+01  0.00000000E+00
  1.23755293E+01  1.23755293E+01 -2.47510585E+01  0.00000000E+00  1.23755293E+01
  1.23755293E+01 -2.47510585E+01  0.00000000E+00  1.23755293E+01  1.23755293E+01
 -2.47510585E+01  0.00000000E+00  1.23755293E+01  1.23755293E+01 -2.47510585E+01
  0.00000000E+00  1.23755293E+01  1.23755293E+01 -2.47510585E+01  0.00000000E+00
  1.23755293E+01  1.23755293E+01 -2.47510585E+01  0.00000000E+00  1.23755293E+01
  1.23755293E+01 -2.47510585E+01  0.00000000E+00  1.23755293E+01  1.23755293E+01
 -2.47510585E+01  0.00000000E+00  1.23755293E+01  1.23755293E+01 -2.47510585E+01
  0.00000000E+00  1.23755293E+01  1.23755293E+01 -2.47510585E+01  0.00000000E+00
  1.23755293E+01  1.23755293E+01 -2.47510585E+01  0.00000000E+00  1.23755293E+01
  1.23755293E+01 -2.47510585E+01  0.00000000E+00  1.23755293E+01  1.23755293E+01
 -2.47510585E+01  0.00000000E+00  1.23755293E+01  1.23755293E+01 -2.47510585E+01
  0.00000000E+00  1.23755293E+01  1.23755293E+01 -2.47510585E+01  0.00000000E+00
  1.23755293E+01  1.23755293E+01 -2.47510585E+01  0.00000000E+00  1.23755293E+01
  1.23755293E+01 -2.47510585E+01  0.00000000E+00  1.23755293E+01  1.23755293E+01
 -2.47510585E+01  0.00000000E+00  1.23755293E+01  1.23755293E+01 -2.47510585E+01
  0.00000000E+00  1.23755293E+01  1.23755293E+01 -2.47510585E+01  0.00000000E+00
  1.23755293E+01  1.23755293E+01 -2.47510585E+01  0.00000000E+00  1.23755293E+01
  1.23755293E+01 -2.47510585E+01  0.00000000E+00  1.23755293E+01  1.23755293E+01
 -2.47510585E+01  0.00000000E+00  1.23755293E+01  1.23755293E+01 -2.47510585E+01
  0.00000000E+00  1.23755293E+01  1.23755293E+01 -2.47510585E+01  0.00000000E+00
  1.23755293E+01  1.23755293E+01 -2.47510585E+01  0.00000000E+00  1.23755293E+01
  1.23755293E+01 -2.47510585E+01  0.00000000E+00  1.23755293E+01  1.23755293E+01
 -2.47510585E+01  0.00000000E+00  1.23755293E+01  1.23755293E+01 -2.47510585E+01
  0.00000000E+00  1.23755293E+01  1.23755293E+01 -2.47510585E+01  0.00000000E+00
  1.23755293E+01  1.23755293E+01 -2.47510585E+01  0.00000000E+00  1.23755293E+01
  1.23755293E+01 -2.47510585E+01  0.00000000E+00  1.23755293E+01  1.23755293E+01
 -2.47510585E+01  0.00000000E+00  1.23755293E+01  1.23755293E+01 -2.47510585E+01
  0.00000000E+00  1.23755293E+01  1.23755293E+01 -2.47510585E+01  0.00000000E+00
  1.23755293E+01  1.23755293E+01 -2.47510585E+01  0.00000000E+00  1.23755293E+01
  1.23755293E+01 -2.47510585E+01  0.00000000E+00  1.23755293E+01  1.23755293E+01
 -2.47510585E+01  0.00000000E+00  1.23755293E+01  1.23755293E+01 -2.47510585E+01
  0.00000000E+00  1.23755293E+01  1.23755293E+01 -2.47510585E+01  0.00000000E+00
  1.23755293E+01  1.23755293E+01 -2.47510585E+01  0.00000000E+00  1.23755293E+01
  1.23755293E+01 -2.47510585E+01  0.00000000E+00  1.23755293E+01  1.23755293E+01
 -2.47510585E+01  0.00000000E+00  1.23755293E+01  1.23755293E+01 -2.47510585E+01
  0.00000000E+00  1.23755293E+01  1.23755293E+01 -2.47510585E+01  0.00000000E+00
  1.23755293E+01  1.23755293E+01 -2.47510585E+01  0.00000000E+00  1.23755293E+01
  1.23755293E+01 -2.47510585E+01  0.00000000E+00  1.23755293E+01  1.23755293E+01
 -2.47510585E+01  0.00000000E+00  1.23755293E+01  1.23755293E+01 -2.47510585E+01
  0.00000000E+00  1.23755293E+01  1.23755293E+01 -2.47510585E+01  0.00000000E+00
  1.23755293E+01  1.23755293E+01 -2.47510585E+01  0.00000000E+00  1.23755293E+01
  1.23755293E+01 -2.47510585E+01  0.00000000E+00  1.23755293E+01  1.23755293E+01
 -2.47510585E+01  0.00000000E+00  1.23755293E+01  1.23755293E+01 -2.47510585E+01
  0.00000000E+00  1.23755293E+01  1.23755293E+01 -2.47510585E+01  0.00000000E+00
  1.23755293E+01  1.23755293E+01 -2.47510585E+01  0.00000000E+00  1.23755293E+01
  1.23755293E+01 -2.47510585E+01  0.00000000E+00  1.23755293E+01  1.23755293E+01
 -2.47510585E+01  0.00000000E+00  1.23755293E+01  1.23755293E+01 -2.47510585E+01
  0.00000000E+00  1.23755293E+01  1.23755293E+01 -2.47510585E+01  0.00000000E+00
  1.23755293E+01  1.23755293E+01 -2.47510585E+01  0.00000000E+00  1.23755293E+01
  1.23755293E+01 -2.47510585E+01  0.00000000E+00  1.23755293E+01  1.23755293E+01
 -2.47510585E+01  0.00000000E+00  1.23755293E+01  1.23755293E+01 -2.47510585E+01
  0.00000000E+00  1.23755293E+01  1.23755293E+01 -2.47510585E+01  0.00000000E+00
  1.23755293E+01  1.23755293E+01 -2.47510585E+01  0.00000000E+00  1.23755293E+01
  1.23755293E+01 -2.47510585E+01  0.00000000E+00  1.23755293E+01  1.23755293E+01
 -2.47510585E+01  0.00000000E+00  1.23755293E+01  1.23755293E+01 -2.47510585E+01
  0.00000000E+00  1.23755293E+01  1.23755293E+01 -2.47510585E+01  0.00000000E+00
  1.23755293E+01  1.23755293E+01 -2.47510585E+01  0.00000000E+00  1.23755293E+01
  1.23755293E+01 -2.47510585E+01  0.00000000E+00  1.23755293E+01  1.23755293E+01
 -2.47510585E+01  0.00000000E+00  1.23755293E+01  1.23755293E+01 -2.47510585E+01
  0.00000000E+00  1.23755293E+01  1.23755293E+01 -2.47510585E+01  0.00000000E+00
  1.23755293E+01  1.23755293E+01 -2.47510585E+01  0.00000000E+00  1.23755293E+01
  1.23755293E+01 -2.47510585E+01  0.00000000E+00  1.23755293E+01  1.23755293E+01
 -2.47510585E+01  0.00000000E+00  1.23755293E+01  1.23755293E+01 -2.47510585E+01
  0.00000000E+00  1.23755293E+01  1.23755293E+01 -2.47510585E+01  0.00000000E+00
  1.23755293E+01  1.23755293E+01 -2.47510585E+01  0.00000000E+00  1.23755293E+01
  1.23755293E+01 -2.47510585E+01  0.00000000E+00  1.23755293E+01  1.23755293E+01
 -2.47510585E+01  0.00000000E+00  1.23755293E+01  1.23755293E+01 -2.47510585E+01
  0.00000000E+00  1.23755293E+01  1.23755293E+01 -2.47510585E+01  0.00000000E+00
  1.23755293E+01  1.23755293E+01 -2.47510585E+01  0.00000000E+00  1.23755293E+01
  1.23755293E+01 -2.47510585E+01  0.00000000E+00  1.23755293E+01  1.23755293E+01
 -2.47510585E+01  0.00000000E+00  1.23755293E+01  1.23755293E+01 -2.47510585E+01
  0.00000000E+00  1.23755293E+01  1.23755293E+01 -2.47510585E+01  0.00000000E+00
  1.23755293E+01  1.23755293E+01 -2.47510585E+01  0.00000000E+00  1.23755293E+01
  1.23755293E+01 -2.47510585E+01  0.00000000E+00  1.23755293E+01  1.23755293E+01
 -2.47510585E+01  0.00000000E+00  1.23755293E+01  1.23755293E+01 -2.47510585E+01
  0.00000000E+00  1.23755293E+01  1.23755293E+01 -2.47510585E+01  0.00000000E+00
  1.23755293E+01  1.23755293E+01 -2.47510585E+01  0.00000000E+00  1.23755293E+01
  1.23755293E+01 -2.47510585E+01  0.00000000E+00  1.23755293E+01  1.23755293E+01
 -2.47510585E+01  0.00000000E+00  1.23755293E+01  1.23755293E+01 -2.47510585E+01
  0.00000000E+00  1.23755293E+01  1.23755293E+01 -2.47510585E+01  0.00000000E+00
  1.23755293E+01  1.23755293E+01 -2.47510585E+01  0.00000000E+00  1.23755293E+01
  1.23755293E+01 -2.47510585E+01  0.00000000E+00  1.23755293E+01  1.23755293E+01
 -2.47510585E+01  0.00000000E+00  1.23755293E+01  1.23755293E+01 -2.47510585E+01
  0.00000000E+00  1.23755293E+01  1.23755293E+01 -2.47510585E+01  0.00000000E+00
  1.23755293E+01  1.23755293E+01 -2.47510585E+01  0.00000000E+00  1.23755293E+01
  1.23755293E+01 -2.47510585E+01  0.00000000E+00  1.23755293E+01  1.23755293E+01
 -2.47510585E+01  0.00000000E+00  1.23755293E+01  1.23755293E+01 -2.47510585E+01
  0.00000000E+00  1.23755293E+01  1.23755293E+01 -2.47510585E+01  0.00000000E+00
  1.23755293E+01  1.23755293E+01 -2.47510585E+01  0.00000000E+00  1.23755293E+01
  1.23755293E+01 -2.47510585E+01  0.00000000E+00  1.23755293E+01  1.23755293E+01
 -2.47510585E+01  0.00000000E+00  1.23755293E+01  1.23755293E+01 -2.47510585E+01
  0.00000000E+00  1.23755293E+01  1.23755293E+01 -2.47510585E+01  0.00000000E+00
  1.23755293E+01  1.23755293E+01 -2.47510585E+01  0.00000000E+00  1.23755293E+01
  1.23755293E+01 -2.47510585E+01  0.00000000E+00  1.23755293E+01  1.23755293E+01
 -2.47510585E+01  0.00000000E+00  1.23755293E+01  1.23755293E+01 -2.47510585E+01
  0.00000000E+00  1.23755293E+01  1.23755293E+01 -2.47510585E+01  0.00000000E+00
  1.23755293E+01  1.23755293E+01 -2.47510585E+01  0.00000000E+00  1.23755293E+01
  1.23755293E+01 -2.47510585E+01  0.00000000E+00  1.23755293E+01  1.23755293E+01
 -2.47510585E+01  0.00000000E+00  1.23755293E+01  1.23755293E+01 -2.47510585E+01
  0.00000000E+00  1.23755293E+01  1.23755293E+01 -2.47510585E+01  0.00000000E+00
  1.23755293E+01  1.23755293E+01 -2.47510585E+01  0.00000000E+00  1.23755293E+01
  1.23755293E+01 -2.47510585E+01  0.00000000E+00  1.23755293E+01  1.23755293E+01
 -2.47510585E+01  0.00000000E+00  1.23755293E+01  1.23755293E+01 -2.47510585E+01
  0.00000000E+00  1.23755293E+01  1.23755293E+01 -2.47510585E+01  0.00000000E+00
  1.23755293E+01  1.23755293E+01 -2.47510585E+01  0.00000000E+00  1.23755293E+01
  1.23755293E+01 -2.47510585E+01  0.00000000E+00  1.23755293E+01  1.23755293E+01
 -2.47510585E+01  0.00000000E+00  1.23755293E+01  1.23755293E+01 -2.47510585E+01
  0.00000000E+00  1.23755293E+01  1.23755293E+01 -2.47510585E+01  0.00000000E+00
  1.23755293E+01  1.23755293E+01 -2.47510585E+01  0.00000000E+00  1.23755293E+01
  1.23755293E+01 -2.47510585E+01  0.00000000E+00  1.23755293E+01  1.23755293E+01
 -2.47510585E+01  0.00000000E+00  1.23755293E+01  1.23755293E+01 -2.47510585E+01
  0.00000000E+00  1.23755293E+01  1.23755293E+01 -2.47510585E+01  0.00000000E+00
  1.23755293E+01  1.23755293E+01 -2.47510585E+01  0.00000000E+00  1.23755293E+01
  1.23755293E+01 -2.47510585E+01  0.00000000E+00  1.23755293E+01  1.23755293E+01
 -2.47510585E+01  0.00000000E+00  1.23755293E+01  1.23755293E+01 -2.47510585E+01
  0.00000000E+00  1.23755293E+01  1.23755293E+01 -2.47510585E+01  0.00000000E+00
  1.23755293E+01  1.23755293E+01 -2.47510585E+01  0.00000000E+00  1.23755293E+01
  1.23755293E+01 -2.47510585E+01  0.00000000E+00  1.23755293E+01  1.23755293E+01
 -2.47510585E+01  0.00000000E+00  1.23755293E+01  1.23755293E+01 -2.47510585E+01
  0.00000000E+00  1.23755293E+01  1.23755293E+01 -2.47510585E+01  0.00000000E+00
  1.23755293E+01  1.23755293E+01 -2.47510585E+01  0.00000000E+00  1.23755293E+01
  1.23755293E+01 -2.47510585E+01  0.00000000E+00  1.23755293E+01  1.23755293E+01
 -2.47510585E+01  0.00000000E+00  1.23755293E+01  1.23755293E+01 -2.47510585E+01
  0.00000000E+00  1.23755293E+01  1.23755293E+01 -2.47510585E+01  0.00000000E+00
  1.23755293E+01  1.23755293E+01 -2.47510585E+01  0.00000000E+00  1.23755293E+01
  1.23755293E+01 -2.47510585E+01  0.00000000E+00  1.23755293E+01  1.23755293E+01
 -2.47510585E+01  0.00000000E+00  1.23755293E+01  1.23755293E+01 -2.47510585E+01
  0.00000000E+00  1.23755293E+01  1.23755293E+01 -2.47510585E+01  0.00000000E+00
  1.23755293E+01  1.23755293E+01 -2.47510585E+01  0.00000000E+00  1.23755293E+01
  1.23755293E+01 -2.47510585E+01  0.00000000E+00  1.23755293E+01  1.23755293E+01
 -2.47510585E+01  0.00000000E+00  1.23755293E+01  1.23755293E+01 -2.47510585E+01
  0.00000000E+00  1.23755293E+01  1.23755293E+01 -2.47510585E+01  0.00000000E+00
  1.23755293E+01  1.23755293E+01 -2.47510585E+01  0.00000000E+00  1.23755293E+01
  1.23755293E+01 -2.47510585E+01  0.00000000E+00  1.23755293E+01  1.23755293E+01
 -2.47510585E+01  0.00000000E+00  1.23755293E+01  1.23755293E+01 -2.47510585E+01
  0.00000000E+00  1.23755293E+01  1.23755293E+01 -2.47510585E+01  0.00000000E+00
  1.23755293E+01  1.23755293E+01 -2.47510585E+01  0.00000000E+00  1.23755293E+01
  1.23755293E+01 -2.47510585E+01  0.00000000E+00  1.23755293E+01  1.23755293E+01
 -2.47510585E+01  0.00000000E+00  1.23755293E+01  1.23755293E+01 -2.47510585E+01
  0.00000000E+00  1.23755293E+01  1.23755293E+01 -2.47510585E+01  0.00000000E+00
  1.23755293E+01  1.23755293E+01 -2.47510585E+01  0.00000000E+00  1.23755293E+01
  1.23755293E+01 -2.47510585E+01  0.00000000E+00  1.23755293E+01  1.23755293E+01
 -2.47510585E+01  0.00000000E+00  1.23755293E+01  1.23755293E+01 -2.47510585E+01
  0.00000000E+00  1.23755293E+01  1.23755293E+01 -2.47510585E+01  0.00000000E+00
  1.23755293E+01  1.23755293E+01 -2.47510585E+01  0.00000000E+00  1.23755293E+01
  1.23755293E+01 -2.47510585E+01  0.00000000E+00  1.23755293E+01  1.23755293E+01
 -2.47510585E+01  0.00000000E+00  1.23755293E+01  1.23755293E+01 -2.47510585E+01
  0.00000000E+00  1.23755293E+01  1.23755293E+01 -2.47510585E+01  0.00000000E+00
  1.23755293E+01  1.23755293E+01 -2.47510585E+01  0.00000000E+00  1.23755293E+01
  1.23755293E+01 -2.47510585E+01  0.00000000E+00  1.23755293E+01  1.23755293E+01
 -2.47510585E+01  0.00000000E+00  1.23755293E+01  1.23755293E+01 -2.47510585E+01
  0.00000000E+00  1.23755293E+01  1.23755293E+01 -2.47510585E+01  0.00000000E+00
  1.23755293E+01  1.23755293E+01 -2.47510585E+01  0.00000000E+00  1.23755293E+01
  1.23755293E+01 -2.47510585E+01  0.00000000E+00  1.23755293E+01  1.23755293E+01
 -2.47510585E+01  0.00000000E+00  1.23755293E+01  1.23755293E+01 -2.47510585E+01
  0.00000000E+00  1.23755293E+01  1.23755293E+01 -2.47510585E+01  0.00000000E+00
  1.23755293E+01  1.23755293E+01 -2.47510585E+01  0.00000000E+00  1.23755293E+01
  1.23755293E+01 -2.47510585E+01  0.00000000E+00  1.23755293E+01  1.23755293E+01
 -2.47510585E+01  0.00000000E+00  1.23755293E+01  1.23755293E+01 -2.47510585E+01
  0.00000000E+00  1.23755293E+01  1.23755293E+01 -2.47510585E+01  0.00000000E+00
  1.23755293E+01  1.23755293E+01 -2.47510585E+01  0.00000000E+00  1.23755293E+01
  1.23755293E+01 -2.47510585E+01  0.00000000E+00  1.23755293E+01  1.23755293E+01
 -2.47510585E+01  0.00000000E+00  1.23755293E+01  1.23755293E+01 -2.47510585E+01
  0.00000000E+00  1.23755293E+01  1.23755293E+01 -2.47510585E+01  0.00000000E+00
  1.23755293E+01  1.23755293E+01 -2.47510585E+01  0.00000000E+00  1.23755293E+01
  1.23755293E+01 -2.47510585E+01  0.00000000E+00  1.23755293E+01  1.23755293E+01
 -2.47510585E+01  0.00000000E+00  1.23755293E+01  1.23755293E+01 -2.47510585E+01
  0.00000000E+00  1.23755293E+01  1.23755293E+01 -2.47510585E+01  0.00000000E+00
  1.23755293E+01  1.23755293E+01 -2.47510585E+01  0.00000000E+00  1.23755293E+01
  1.23755293E+01 -2.47510585E+01  0.00000000E+00  1.23755293E+01  1.23755293E+01
 -2.47510585E+01  0.00000000E+00  1.23755293E+01  1.23755293E+01 -2.47510585E+01
  0.00000000E+00  1.23755293E+01  1.23755293E+01 -2.47510585E+01  0.00000000E+00
  1.23755293E+01  1.23755293E+01 -2.47510585E+01  0.00000000E+00  1.23755293E+01
  1.23755293E+01 -2.47510585E+01  0.00000000E+00  1.23755293E+01  1.23755293E+01
 -2.47510585E+01  0.00000000E+00  1.23755293E+01  1.23755293E+01 -2.47510585E+01
  0.00000000E+00  1.23755293E+01  1.23755293E+01 -2.47510585E+01  0.00000000E+00
  1.23755293E+01  1.23755293E+01 -2.47510585E+01  0.00000000E+00  1.23755293E+01
  1.23755293E+01 -2.47510585E+01  0.00000000E+00  1.23755293E+01  1.23755293E+01
 -2.47510585E+01  0.00000000E+00  1.23755293E+01  1.23755293E+01 -2.47510585E+01
  0.00000000E+00  1.23755293E+01  1.23755293E+01 -2.47510585E+01  0.00000000E+00
  1.23755293E+01  1.23755293E+01 -2.47510585E+01  0.00000000E+00  1.23755293E+01
  1.23755293E+01 -2.47510585E+01  0.00000000E+00  1.23755293E+01  1.23755293E+01
 -2.47510585E+01  0.00000000E+00  1.23755293E+01  1.23755293E+01 -2.47510585E+01
  0.00000000E+00  1.23755293E+01  1.23755293E+01 -2.47510585E+01  0.00000000E+00
  1.23755293E+01  1.23755293E+01 -2.47510585E+01  0.00000000E+00  1.23755293E+01
  1.23755293E+01 -2.47510585E+01  0.00000000E+00  1.23755293E+01  1.23755293E+01
 -2.47510585E+01  0.00000000E+00  1.23755293E+01  1.23755293E+01 -2.47510585E+01
  0.00000000E+00  1.23755293E+01  1.23755293E+01 -2.47510585E+01  0.00000000E+00
  1.23755293E+01  1.23755293E+01 -2.47510585E+01  0.00000000E+00  1.23755293E+01
  1.23755293E+01 -2.47510585E+01  0.00000000E+00  1.23755293E+01  1.23755293E+01
 -2.47510585E+01  0.00000000E+00  1.23755293E+01  1.23755293E+01 -2.47510585E+01
  0.00000000E+00  1.23755293E+01  1.23755293E+01 -2.47510585E+01  0.00000000E+00
  1.23755293E+01  1.23755293E+01 -2.47510585E+01  0.00000000E+00  1.23755293E+01
  1.23755293E+01 -2.47510585E+01  0.00000000E+00  1.23755293E+01  1.23755293E+01
 -2.47510585E+01  0.00000000E+00  1.23755293E+01  1.23755293E+01 -2.47510585E+01
  0.00000000E+00  1.23755293E+01  1.23755293E+01 -2.47510585E+01  0.00000000E+00
  1.23755293E+01  1.23755293E+01 -2.47510585E+01  0.00000000E+00  1.23755293E+01
  1.23755293E+01 -2.47510585E+01  0.00000000E+00  1.23755293E+01  1.23755293E+01
 -2.47510585E+01  0.00000000E+00  1.23755293E+01  1.23755293E+01 -2.47510585E+01
  0.00000000E+00  1.23755293E+01  1.23755293E+01 -2.47510585E+01  0.00000000E+00
  1.23755293E+01  1.23755293E+01 -2.47510585E+01  0.00000000E+00  1.23755293E+01
  1.23755293E+01 -2.47510585E+01  0.00000000E+00  1.23755293E+01  1.23755293E+01
 -2.47510585E+01  0.00000000E+00  1.23755293E+01  1.23755293E+01 -2.47510585E+01
  0.00000000E+00  1.23755293E+01  1.23755293E+01 -2.47510585E+01  0.00000000E+00
  1.23755293E+01  1.23755293E+01 -2.47510585E+01  0.00000000E+00  1.23755293E+01
  1.23755293E+01 -2.47510585E+01  0.00000000E+00  1.23755293E+01  1.23755293E+01
 -2.47510585E+01  0.00000000E+00  1.23755293E+01  1.23755293E+01 -2.47510585E+01
  0.00000000E+00  1.23755293E+01  1.23755293E+01 -2.47510585E+01  0.00000000E+00
  1.23755293E+01  1.23755293E+01 -2.47510585E+01  0.00000000E+00  1.23755293E+01
  1.23755293E+01 -2.47510585E+01  0.00000000E+00  1.23755293E+01  1.23755293E+01
 -2.47510585E+01  0.00000000E+00  1.23755293E+01  1.23755293E+01 -2.47510585E+01
  0.00000000E+00  1.23755293E+01  1.23755293E+01 -2.47510585E+01  0.00000000E+00
  1.23755293E+01  1.23755293E+01 -2.47510585E+01  0.00000000E+00  1.23755293E+01
  1.23755293E+01 -2.47510585E+01  0.00000000E+00  1.23755293E+01  1.23755293E+01
 -2.47510585E+01  0.00000000E+00  1.23755293E+01  1.23755293E+01 -2.47510585E+01
  0.00000000E+00  1.23755293E+01  1.23755293E+01 -2.47510585E+01  0.00000000E+00
  1.23755293E+01  1.23755293E+01 -2.47510585E+01  0.00000000E+00  1.23755293E+01
  1.23755293E+01 -2.47510585E+01  0.00000000E+00  1.23755293E+01  1.23755293E+01
 -2.47510585E+01  0.00000000E+00  1.23755293E+01  1.23755293E+01 -2.47510585E+01
  0.00000000E+00  1.23755293E+01  1.23755293E+01 -2.47510585E+01  0.00000000E+00
  1.23755293E+01  1.23755293E+01 -2.47510585E+01  0.00000000E+00  1.23755293E+01
  1.23755293E+01 -2.47510585E+01  0.00000000E+00  1.23755293E+01  1.23755293E+01
 -2.47510585E+01  0.00000000E+00  1.23755293E+01  1.23755293E+01 -2.47510585E+01
  0.00000000E+00  1.23755293E+01  1.23755293E+01 -2.47510585E+01  0.00000000E+00
  1.23755293E+01  1.23755293E+01 -2.47510585E+01  0.00000000E+00  1.23755293E+01
  1.23755293E+01 -2.47510585E+01  0.00000000E+00  1.23755293E+01  1.23755293E+01
 -2.47510585E+01  0.00000000E+00  1.23755293E+01  1.23755293E+01 -2.47510585E+01
  0.00000000E+00  1.23755293E+01  1.23755293E+01 -2.47510585E+01  0.00000000E+00
  1.23755293E+01  1.23755293E+01 -2.47510585E+01  0.00000000E+00  1.23755293E+01
  1.23755293E+01 -2.47510585E+01  0.00000000E+00  1.23755293E+01  1.23755293E+01
 -2.47510585E+01  0.00000000E+00  1.23755293E+01  1.23755293E+01 -2.47510585E+01
  0.00000000E+00  1.23755293E+01  1.23755293E+01 -2.47510585E+01  0.00000000E+00
  1.23755293E+01  1.23755293E+01 -2.47510585E+01  0.00000000E+00  1.23755293E+01
  1.23755293E+01 -2.47510585E+01  0.00000000E+00  1.23755293E+01  1.23755293E+01
 -2.47510585E+01  0.00000000E+00  1.23755293E+01  1.23755293E+01 -2.47510585E+01
  0.00000000E+00  1.23755293E+01  1.23755293E+01 -2.47510585E+01  0.00000000E+00
  1.23755293E+01  1.23755293E+01 -2.47510585E+01  0.00000000E+00  1.23755293E+01
  1.23755293E+01 -2.47510585E+01  0.00000000E+00  1.23755293E+01  1.23755293E+01
 -2.47510585E+01  0.00000000E+00  1.23755293E+01  1.23755293E+01 -2.47510585E+01
  0.00000000E+00  1.23755293E+01  1.23755293E+01 -2.47510585E+01  0.00000000E+00
  1.23755293E+01  1.23755293E+01 -2.47510585E+01  0.00000000E+00  1.23755293E+01
  1.23755293E+01 -2.47510585E+01  0.00000000E+00  1.23755293E+01  1.23755293E+01
 -2.47510585E+01  0.00000000E+00  1.23755293E+01  1.23755293E+01 -2.47510585E+01
  0.00000000E+00  1.23755293E+01  1.23755293E+01 -2.47510585E+01  0.00000000E+00
  1.23755293E+01  1.23755293E+01 -2.47510585E+01  0.00000000E+00  1.23755293E+01
  1.23755293E+01 -2.47510585E+01  0.00000000E+00  1.23755293E+01  1.23755293E+01
 -2.47510585E+01  0.00000000E+00  1.23755293E+01  1.23755293E+01 -2.47510585E+01
  0.00000000E+00  1.23755293E+01  1.23755293E+01 -2.47510585E+01  0.00000000E+00
  1.23755293E+01  1.23755293E+01 -2.47510585E+01  0.00000000E+00  1.23755293E+01
  1.23755293E+01 -2.47510585E+01  0.00000000E+00  1.23755293E+01  1.23755293E+01
 -2.47510585E+01  0.00000000E+00  1.23755293E+01  1.23755293E+01 -2.47510585E+01
  0.00000000E+00  1.23755293E+01  1.23755293E+01 -2.47510585E+01  0.00000000E+00
  1.23755293E+01  1.23755293E+01 -2.47510585E+01  0.00000000E+00  1.23755293E+01
  1.23755293E+01 -2.47510585E+01  0.00000000E+00  1.23755293E+01  1.23755293E+01
 -2.47510585E+01  0.00000000E+00  1.23755293E+01  1.23755293E+01 -2.47510585E+01
  0.00000000E+00  1.23755293E+01  1.23755293E+01 -2.47510585E+01  0.00000000E+00
  1.23755293E+01  1.23755293E+01 -2.47510585E+01  0.00000000E+00  1.23755293E+01
  1.23755293E+01 -2.47510585E+01  0.00000000E+00  1.23755293E+01  1.23755293E+01
 -2.47510585E+01  0.00000000E+00  1.23755293E+01  1.23755293E+01 -2.47510585E+01
  0.00000000E+00  1.23755293E+01  1.23755293E+01 -2.47510585E+01  0.00000000E+00
  1.23755293E+01  1.23755293E+01 -2.47510585E+01  0.00000000E+00  1.23755293E+01
  1.23755293E+01 -2.47510585E+01  0.00000000E+00  1.23755293E+01  1.23755293E+01
 -2.47510585E+01  0.00000000E+00  1.23755293E+01  1.23755293E+01 -2.47510585E+01
  0.00000000E+00  1.23755293E+01  1.23755293E+01 -2.47510585E+01  0.00000000E+00
  1.23755293E+01  1.23755293E+01 -2.47510585E+01  0.00000000E+00  1.23755293E+01
  1.23755293E+01 -2.47510585E+01  0.00000000E+00  1.23755293E+01  1.23755293E+01
 -2.47510585E+01  0.00000000E+00  1.23755293E+01  1.23755293E+01 -2.47510585E+01
  0.00000000E+00  1.23755293E+01  1.23755293E+01 -2.47510585E+01  0.00000000E+00
  1.23755293E+01  1.23755293E+01 -2.47510585E+01  0.00000000E+00  1.23755293E+01
  1.23755293E+01 -2.47510585E+01  0.00000000E+00  1.23755293E+01  1.23755293E+01
 -2.47510585E+01  0.00000000E+00  1.23755293E+01  1.23755293E+01 -2.47510585E+01
  0.00000000E+00  1.23755293E+01  1.23755293E+01 -2.47510585E+01  0.00000000E+00
  1.23755293E+01  1.23755293E+01 -2.47510585E+01  0.00000000E+00  1.23755293E+01
  1.23755293E+01 -2.47510585E+01  0.00000000E+00  1.23755293E+01  1.23755293E+01
 -2.47510585E+01  0.00000000E+00  1.23755293E+01  1.23755293E+01 -2.47510585E+01
  0.00000000E+00  1.23755293E+01  1.23755293E+01 -2.47510585E+01  0.00000000E+00
  1.23755293E+01  1.23755293E+01 -2.47510585E+01  0.00000000E+00  1.23755293E+01
  1.23755293E+01 -2.47510585E+01  0.00000000E+00  1.23755293E+01  1.23755293E+01
 -2.47510585E+01  0.00000000E+00  1.23755293E+01  1.23755293E+01 -2.47510585E+01
  0.00000000E+00  1.23755293E+01  1.23755293E+01 -2.47510585E+01  0.00000000E+00
  1.23755293E+01  1.23755293E+01 -2.47510585E+01  0.00000000E+00  1.23755293E+01
  1.23755293E+01 -2.47510585E+01  0.00000000E+00  1.23755293E+01  1.23755293E+01
 -2.47510585E+01  0.00000000E+00  1.23755293E+01  1.23755293E+01 -2.47510585E+01
  0.00000000E+00  1.23755293E+01  1.23755293E+01 -2.47510585E+01  0.00000000E+00
  1.23755293E+01  1.23755293E+01 -2.47510585E+01  0.00000000E+00  1.23755293E+01
  1.23755293E+01 -2.47510585E+01  0.00000000E+00  1.23755293E+01  1.23755293E+01
 -2.47510585E+01  0.00000000E+00  1.23755293E+01  1.23755293E+01 -2.47510585E+01
  0.00000000E+00  1.23755293E+01  1.23755293E+01 -2.47510585E+01  0.00000000E+00
  1.23755293E+01  1.23755293E+01 -2.47510585E+01  0.00000000E+00  1.23755293E+01
  1.23755293E+01 -2.47510585E+01  0.00000000E+00  1.23755293E+01  1.23755293E+01
 -2.47510585E+01  0.00000000E+00  1.23755293E+01  1.23755293E+01 -2.47510585E+01
  0.00000000E+00  1.23755293E+01  1.23755293E+01 -2.47510585E+01  0.00000000E+00
  1.23755293E+01  1.23755293E+01 -2.47510585E+01  0.00000000E+00  1.23755293E+01
  1.23755293E+01 -2.47510585E+01  0.00000000E+00  1.23755293E+01  1.23755293E+01
 -2.47510585E+01  0.00000000E+00  1.23755293E+01  1.23755293E+01 -2.47510585E+01
  0.00000000E+00  1.23755293E+01  1.23755293E+01 -2.47510585E+01  0.00000000E+00
  1.23755293E+01  1.23755293E+01 -2.47510585E+01  0.00000000E+00  1.23755293E+01
  1.23755293E+01 -2.47510585E+01  0.00000000E+00  1.23755293E+01  1.23755293E+01
 -2.47510585E+01  0.00000000E+00  1.23755293E+01  1.23755293E+01 -2.47510585E+01
  0.00000000E+00  1.23755293E+01  1.23755293E+01 -2.47510585E+01  0.00000000E+00
  1.23755293E+01  1.23755293E+01 -2.47510585E+01  0.00000000E+00  1.23755293E+01
  1.23755293E+01 -2.47510585E+01  0.00000000E+00  1.23755293E+01  1.23755293E+01
 -2.47510585E+01  0.00000000E+00  1.23755293E+01  1.23755293E+01 -2.47510585E+01
  0.00000000E+00  1.23755293E+01  1.23755293E+01 -2.47510585E+01  0.00000000E+00
  1.23755293E+01  1.23755293E+01 -2.47510585E+01  0.00000000E+00  1.23755293E+01
  1.23755293E+01 -2.47510585E+01  0.00000000E+00  1.23755293E+01  1.23755293E+01
 -2.47510585E+01  0.00000000E+00  1.23755293E+01  1.23755293E+01 -2.47510585E+01
  0.00000000E+00  1.23755293E+01  1.23755293E+01 -2.47510585E+01  0.00000000E+00
  1.23755293E+01  1.23755293E+01 -2.47510585E+01  0.00000000E+00  1.23755293E+01
  1.23755293E+01 -2.47510585E+01  0.00000000E+00  1.23755293E+01  1.23755293E+01
 -2.47510585E+01  0.00000000E+00  1.23755293E+01  1.23755293E+01 -2.47510585E+01
  0.00000000E+00  1.23755293E+01  1.23755293E+01 -2.47510585E+01  0.00000000E+00
  1.23755293E+01  1.23755293E+01 -2.47510585E+01  0.00000000E+00  1.23755293E+01
  1.23755293E+01 -2.47510585E+01  0.00000000E+00  1.23755293E+01  1.23755293E+01
 -2.47510585E+01  0.00000000E+00  1.23755293E+01  1.23755293E+01 -2.47510585E+01
  0.00000000E+00  1.23755293E+01  1.23755293E+01 -2.47510585E+01  0.00000000E+00
  1.23755293E+01  1.23755293E+01 -2.47510585E+01  0.00000000E+00  1.23755293E+01
  1.23755293E+01 -2.47510585E+01  0.00000000E+00  1.23755293E+01  1.23755293E+01
 -2.47510585E+01  0.00000000E+00  1.23755293E+01  1.23755293E+01 -2.47510585E+01
  0.00000000E+00  1.23755293E+01  1.23755293E+01 -2.47510585E+01  0.00000000E+00
  1.23755293E+01  1.23755293E+01 -2.47510585E+01  0.00000000E+00  1.23755293E+01
  1.23755293E+01 -2.47510585E+01  0.00000000E+00  1.23755293E+01  1.23755293E+01
 -2.47510585E+01  0.00000000E+00  1.23755293E+01  1.23755293E+01 -2.47510585E+01
  0.00000000E+00  1.23755293E+01  1.23755293E+01 -2.47510585E+01  0.00000000E+00
  1.23755293E+01  1.23755293E+01 -2.47510585E+01  0.00000000E+00  1.23755293E+01
  1.23755293E+01 -2.47510585E+01  0.00000000E+00  1.23755293E+01  1.23755293E+01
 -2.47510585E+01  0.00000000E+00  1.23755293E+01  1.23755293E+01 -2.47510585E+01
  0.00000000E+00  1.23755293E+01  1.23755293E+01 -2.47510585E+01  0.00000000E+00
  1.23755293E+01  1.23755293E+01 -2.47510585E+01  0.00000000E+00  1.23755293E+01
  1.23755293E+01 -2.47510585E+01  0.00000000E+00  1.23755293E+01  1.23755293E+01
 -2.47510585E+01  0.00000000E+00  1.23755293E+01  1.23755293E+01 -2.47510585E+01
  0.00000000E+00  1.23755293E+01  1.23755293E+01 -2.47510585E+01  0.00000000E+00
  1.23755293E+01  1.23755293E+01 -2.47510585E+01  0.00000000E+00  1.23755293E+01
  1.23755293E+01 -2.47510585E+01  0.00000000E+00  1.23755293E+01  1.23755293E+01
 -2.47510585E+01  0.00000000E+00  1.23755293E+01  1.23755293E+01 -2.47510585E+01
  0.00000000E+00  1.23755293E+01  1.23755293E+01 -2.47510585E+01  0.00000000E+00
  1.23755293E+01  1.23755293E+01 -2.47510585E+01  0.00000000E+00  1.23755293E+01
  1.23755293E+01 -2.47510585E+01  0.00000000E+00  1.23755293E+01  1.23755293E+01
 -2.47510585E+01  0.00000000E+00  1.23755293E+01  1.23755293E+01 -2.47510585E+01
  0.00000000E+00  1.23755293E+01  1.23755293E+01 -2.47510585E+01  0.00000000E+00
  1.23755293E+01  1.23755293E+01 -2.47510585E+01  0.00000000E+00  1.23755293E+01
  1.23755293E+01 -2.47510585E+01  0.00000000E+00  1.23755293E+01  1.23755293E+01
 -2.47510585E+01  0.00000000E+00  1.23755293E+01  1.23755293E+01 -2.47510585E+01
  0.00000000E+00  1.23755293E+01  1.23755293E+01 -2.47510585E+01  0.00000000E+00
  1.23755293E+01  1.23755293E+01 -2.47510585E+01  0.00000000E+00  1.23755293E+01
  1.23755293E+01 -2.47510585E+01  0.00000000E+00  1.23755293E+01  1.23755293E+01
 -2.47510585E+01  0.00000000E+00  1.23755293E+01  1.23755293E+01 -2.47510585E+01
  0.00000000E+00  1.23755293E+01  1.23755293E+01 -2.47510585E+01  0.00000000E+00
  1.23755293E+01  1.23755293E+01 -2.47510585E+01  0.00000000E+00  1.23755293E+01
  1.23755293E+01 -2.47510585E+01  0.00000000E+00  1.23755293E+01  1.23755293E+01
 -2.47510585E+01  0.00000000E+00  1.23755293E+01  1.23755293E+01 -2.47510585E+01
  0.00000000E+00  1.23755293E+01  1.23755293E+01 -2.47510585E+01  0.00000000E+00
  1.23755293E+01  1.23755293E+01 -2.47510585E+01  0.00000000E+00  1.23755293E+01
  1.23755293E+01 -2.47510585E+01  0.00000000E+00  1.23755293E+01  1.23755293E+01
 -2.47510585E+01  0.00000000E+00  1.23755293E+01  1.23755293E+01 -2.47510585E+01
  0.00000000E+00  1.23755293E+01  1.23755293E+01 -2.47510585E+01  0.00000000E+00
  1.23755293E+01  1.23755293E+01 -2.47510585E+01  0.00000000E+00  1.23755293E+01
  1.23755293E+01 -2.47510585E+01  0.00000000E+00  1.23755293E+01  1.23755293E+01
 -2.47510585E+01  0.00000000E+00  1.23755293E+01  1.23755293E+01 -2.47510585E+01
  0.00000000E+00  1.23755293E+01  1.23755293E+01 -2.47510585E+01  0.00000000E+00
  1.23755293E+01  1.23755293E+01 -2.47510585E+01  0.00000000E+00  1.23755293E+01
  1.23755293E+01 -2.47510585E+01  0.00000000E+00  1.23755293E+01  1.23755293E+01
 -2.47510585E+01  0.00000000E+00  1.23755293E+01  1.23755293E+01 -2.47510585E+01
  0.00000000E+00  1.23755293E+01  1.23755293E+01 -2.47510585E+01  0.00000000E+00
  1.23755293E+01  1.23755293E+01 -2.47510585E+01  0.00000000E+00  1.23755293E+01
  1.23755293E+01 -2.47510585E+01  0.00000000E+00  1.23755293E+01  1.23755293E+01
 -2.47510585E+01  0.00000000E+00  1.23755293E+01  1.23755293E+01 -2.47510585E+01
  0.00000000E+00  1.23755293E+01  1.23755293E+01 -2.47510585E+01  0.00000000E+00
  1.23755293E+01  1.23755293E+01 -2.47510585E+01  0.00000000E+00  1.23755293E+01
  1.23755293E+01 -2.47510585E+01  0.00000000E+00  1.23755293E+01  1.23755293E+01
 -2.47510585E+01  0.00000000E+00  1.23755293E+01  1.23755293E+01 -2.47510585E+01
  0.00000000E+00  1.23755293E+01  1.23755293E+01 -2.47510585E+01  0.00000000E+00
  1.23755293E+01  1.23755293E+01 -2.47510585E+01  0.00000000E+00  1.23755293E+01
  1.23755293E+01 -2.47510585E+01  0.00000000E+00  1.23755293E+01  1.23755293E+01
 -2.47510585E+01  0.00000000E+00  1.23755293E+01  1.23755293E+01 -2.47510585E+01
  0.00000000E+00  1.23755293E+01  1.23755293E+01 -2.47510585E+01  0.00000000E+00
  1.23755293E+01  1.23755293E+01 -2.47510585E+01  0.00000000E+00  1.23755293E+01
  1.23755293E+01 -2.47510585E+01  0.00000000E+00  1.23755293E+01  1.23755293E+01
 -2.47510585E+01  0.00000000E+00  1.23755293E+01  1.23755293E+01 -2.47510585E+01
  0.00000000E+00  1.23755293E+01  1.23755293E+01 -2.47510585E+01  0.00000000E+00
  1.23755293E+01  1.23755293E+01 -2.47510585E+01  0.00000000E+00  1.23755293E+01
  1.23755293E+01 -2.47510585E+01  0.00000000E+00  1.23755293E+01  1.23755293E+01
 -2.47510585E+01  0.00000000E+00  1.23755293E+01  1.23755293E+01 -2.47510585E+01
  0.00000000E+00  1.23755293E+01  1.23755293E+01 -2.47510585E+01  0.00000000E+00
  1.23755293E+01  1.23755293E+01 -2.47510585E+01  0.00000000E+00  1.23755293E+01
  1.23755293E+01 -2.47510585E+01  0.00000000E+00  1.23755293E+01  1.23755293E+01
 -2.47510585E+01  0.00000000E+00  1.23755293E+01  1.23755293E+01 -2.47510585E+01
  0.00000000E+00  1.23755293E+01  1.23755293E+01 -2.47510585E+01  0.00000000E+00
  1.23755293E+01  1.23755293E+01 -2.47510585E+01  0.00000000E+00  1.23755293E+01
  1.23755293E+01 -2.47510585E+01  0.00000000E+00  1.23755293E+01  1.23755293E+01
 -2.47510585E+01  0.00000000E+00  1.23755293E+01  1.23755293E+01 -2.47510585E+01
  0.00000000E+00  1.23755293E+01  1.23755293E+01 -2.47510585E+01  0.00000000E+00
  1.23755293E+01  1.23755293E+01 -2.47510585E+01  0.00000000E+00  1.23755293E+01
  1.23755293E+01 -2.47510585E+01  0.00000000E+00  1.23755293E+01  1.23755293E+01
 -2.47510585E+01  0.00000000E+00  1.23755293E+01  1.23755293E+01 -2.47510585E+01
  0.00000000E+00  1.23755293E+01  1.23755293E+01 -2.47510585E+01  0.00000000E+00
  1.23755293E+01  1.23755293E+01 -2.47510585E+01  0.00000000E+00  1.23755293E+01
  1.23755293E+01 -2.47510585E+01  0.00000000E+00  1.23755293E+01  1.23755293E+01
 -2.47510585E+01  0.00000000E+00  1.23755293E+01  1.23755293E+01 -2.47510585E+01
  0.00000000E+00  1.23755293E+01  1.23755293E+01 -2.47510585E+01  0.00000000E+00
  1.23755293E+01  1.23755293E+01 -2.47510585E+01  0.00000000E+00  1.23755293E+01
  1.23755293E+01 -2.47510585E+01  0.00000000E+00  1.23755293E+01  1.23755293E+01
 -2.47510585E+01  0.00000000E+00  1.23755293E+01  1.23755293E+01 -2.47510585E+01
  0.00000000E+00  1.23755293E+01  1.23755293E+01 -2.47510585E+01  0.00000000E+00
  1.23755293E+01  1.23755293E+01 -2.47510585E+01  0.00000000E+00  1.23755293E+01
  1.23755293E+01 -2.47510585E+01  0.00000000E+00  1.23755293E+01  1.23755293E+01
 -2.47510585E+01  0.00000000E+00  1.23755293E+01  1.23755293E+01 -2.47510585E+01
  0.00000000E+00  1.23755293E+01  1.23755293E+01 -2.47510585E+01  0.00000000E+00
  1.23755293E+01  1.23755293E+01 -2.47510585E+01  0.00000000E+00  1.23755293E+01
  1.23755293E+01 -2.47510585E+01  0.00000000E+00  1.23755293E+01  1.23755293E+01
 -2.47510585E+01  0.00000000E+00  1.23755293E+01  1.23755293E+01 -2.47510585E+01
  0.00000000E+00  1.23755293E+01  1.23755293E+01 -2.47510585E+01  0.00000000E+00
  1.23755293E+01  1.23755293E+01 -2.47510585E+01  0.00000000E+00  1.23755293E+01
  1.23755293E+01 -2.47510585E+01  0.00000000E+00  1.23755293E+01  1.23755293E+01
 -2.47510585E+01  0.00000000E+00  1.23755293E+01  1.23755293E+01 -2.47510585E+01
  0.00000000E+00  1.23755293E+01  1.23755293E+01 -2.47510585E+01  0.00000000E+00
  1.23755293E+01  1.23755293E+01 -2.47510585E+01  0.00000000E+00  1.23755293E+01
  1.23755293E+01 -2.47510585E+01  0.00000000E+00  1.23755293E+01  1.23755293E+01
 -2.47510585E+01  0.00000000E+00  1.23755293E+01  1.23755293E+01 -2.47510585E+01
  0.00000000E+00  1.23755293E+01  1.23755293E+01 -2.47510585E+01  0.00000000E+00
  1.23755293E+01  1.23755293E+01 -2.47510585E+01  0.00000000E+00  1.23755293E+01
  1.23755293E+01 -2.47510585E+01  0.00000000E+00  1.23755293E+01  1.23755293E+01
 -2.47510585E+01  0.00000000E+00  1.23755293E+01  1.23755293E+01 -2.47510585E+01
  0.00000000E+00  1.23755293E+01  1.23755293E+01 -2.47510585E+01  0.00000000E+00
  1.23755293E+01  1.23755293E+01 -2.47510585E+01  0.00000000E+00  1.23755293E+01
  1.23755293E+01 -2.47510585E+01  0.00000000E+00  1.23755293E+01  1.23755293E+01
 -2.47510585E+01  0.00000000E+00  1.23755293E+01  1.23755293E+01 -2.47510585E+01
  0.00000000E+00  1.23755293E+01  1.23755293E+01 -2.47510585E+01  0.00000000E+00
  1.23755293E+01  1.23755293E+01 -2.47510585E+01  0.00000000E+00  1.23755293E+01
  1.23755293E+01 -2.47510585E+01  0.00000000E+00  1.23755293E+01  1.23755293E+01
 -2.47510585E+01  0.00000000E+00  1.23755293E+01  1.23755293E+01 -2.47510585E+01
  0.00000000E+00  1.23755293E+01  1.23755293E+01 -2.47510585E+01  0.00000000E+00
  1.23755293E+01  1.23755293E+01 -2.47510585E+01  0.00000000E+00  1.23755293E+01
  1.23755293E+01 -2.47510585E+01  0.00000000E+00  1.23755293E+01  1.23755293E+01
 -2.47510585E+01  0.00000000E+00  1.23755293E+01  1.23755293E+01 -2.47510585E+01
  0.00000000E+00  1.23755293E+01  1.23755293E+01 -2.47510585E+01  0.00000000E+00
  1.23755293E+01  1.23755293E+01 -2.47510585E+01  0.00000000E+00  1.23755293E+01
  1.23755293E+01 -2.47510585E+01  0.00000000E+00  1.23755293E+01  1.23755293E+01
 -2.47510585E+01  0.00000000E+00  1.23755293E+01  1.23755293E+01 -2.47510585E+01
  0.00000000E+00  1.23755293E+01  1.23755293E+01 -2.47510585E+01  0.00000000E+00
  1.23755293E+01  1.23755293E+01 -2.47510585E+01  0.00000000E+00  1.23755293E+01
  1.23755293E+01 -2.47510585E+01  0.00000000E+00  1.23755293E+01  1.23755293E+01
 -2.47510585E+01  0.00000000E+00  1.23755293E+01  1.23755293E+01 -2.47510585E+01
  0.00000000E+00  1.23755293E+01  1.23755293E+01 -2.47510585E+01  0.00000000E+00
  1.23755293E+01  1.23755293E+01 -2.47510585E+01  0.00000000E+00  1.23755293E+01
  1.23755293E+01 -2.47510585E+01  0.00000000E+00  1.23755293E+01  1.23755293E+01
 -2.47510585E+01  0.00000000E+00  1.23755293E+01  1.23755293E+01 -2.47510585E+01
  0.00000000E+00  1.23755293E+01  1.23755293E+01 -2.47510585E+01  0.00000000E+00
  1.23755293E+01  1.23755293E+01 -2.47510585E+01  0.00000000E+00  1.23755293E+01
  1.23755293E+01 -2.47510585E+01  0.00000000E+00  1.23755293E+01  1.23755293E+01
 -2.47510585E+01  0.00000000E+00  1.23755293E+01  1.23755293E+01 -2.47510585E+01
  0.00000000E+00  1.23755293E+01  1.23755293E+01 -2.47510585E+01  0.00000000E+00
  1.23755293E+01  1.23755293E+01 -2.47510585E+01  0.00000000E+00  1.23755293E+01
  1.23755293E+01 -2.47510585E+01  0.00000000E+00  1.23755293E+01  1.23755293E+01
 -2.47510585E+01  0.00000000E+00  1.23755293E+01  1.23755293E+01 -2.47510585E+01
  0.00000000E+00  1.23755293E+01  1.23755293E+01 -2.47510585E+01  0.00000000E+00
  1.23755293E+01  1.23755293E+01 -2.47510585E+01  0.00000000E+00  1.23755293E+01
  1.23755293E+01 -2.47510585E+01  0.00000000E+00  1.23755293E+01  1.23755293E+01
 -2.47510585E+01  0.00000000E+00  1.23755293E+01  1.23755293E+01 -2.47510585E+01
  0.00000000E+00  1.23755293E+01  1.23755293E+01 -2.47510585E+01  0.00000000E+00
  1.23755293E+01  1.23755293E+01 -2.47510585E+01  0.00000000E+00  1.23755293E+01
  1.23755293E+01 -2.47510585E+01  0.00000000E+00  1.23755293E+01  1.23755293E+01
 -2.47510585E+01  0.00000000E+00  1.23755293E+01  1.23755293E+01 -2.47510585E+01
  0.00000000E+00  1.23755293E+01  1.23755293E+01 -2.47510585E+01  0.00000000E+00
  1.23755293E+01  1.23755293E+01 -2.47510585E+01  0.00000000E+00  1.23755293E+01
  1.23755293E+01 -2.47510585E+01  0.00000000E+00  1.23755293E+01  1.23755293E+01
 -2.47510585E+01  0.00000000E+00  1.23755293E+01  1.23755293E+01 -2.47510585E+01
  0.00000000E+00  1.23755293E+01  1.23755293E+01 -2.47510585E+01  0.00000000E+00
  1.23755293E+01  1.23755293E+01 -2.47510585E+01  0.00000000E+00  1.23755293E+01
  1.23755293E+01 -2.47510585E+01  0.00000000E+00  1.23755293E+01  1.23755293E+01
 -2.47510585E+01  0.00000000E+00  1.23755293E+01  1.23755293E+01 -2.47510585E+01
  0.00000000E+00  1.23755293E+01  1.23755293E+01 -2.47510585E+01  0.00000000E+00
  1.23755293E+01  1.23755293E+01 -2.47510585E+01  0.00000000E+00  1.23755293E+01
  1.23755293E+01 -2.47510585E+01  0.00000000E+00  1.23755293E+01  1.23755293E+01
 -2.47510585E+01  0.00000000E+00  1.23755293E+01  1.23755293E+01 -2.47510585E+01
  0.00000000E+00  1.23755293E+01  1.23755293E+01 -2.47510585E+01  0.00000000E+00
  1.23755293E+01  1.23755293E+01 -2.47510585E+01  0.00000000E+00  1.23755293E+01
  1.23755293E+01 -2.47510585E+01  0.00000000E+00  1.23755293E+01  1.23755293E+01
 -2.47510585E+01  0.00000000E+00  1.23755293E+01  1.23755293E+01 -2.47510585E+01
  0.00000000E+00  1.23755293E+01  1.23755293E+01 -2.47510585E+01  0.00000000E+00
  1.23755293E+01  1.23755293E+01 -2.47510585E+01  0.00000000E+00  1.23755293E+01
  1.23755293E+01 -2.47510585E+01  0.00000000E+00  1.23755293E+01  1.23755293E+01
 -2.47510585E+01  0.00000000E+00  1.23755293E+01  1.23755293E+01 -2.47510585E+01
  0.00000000E+00  1.23755293E+01  1.23755293E+01 -2.47510585E+01  0.00000000E+00
  1.23755293E+01  1.23755293E+01 -2.47510585E+01  0.00000000E+00  1.23755293E+01
  1.23755293E+01 -2.47510585E+01  0.00000000E+00  1.23755293E+01  1.23755293E+01
 -2.47510585E+01  0.00000000E+00  1.23755293E+01  1.23755293E+01 -2.47510585E+01
  0.00000000E+00  1.23755293E+01  1.23755293E+01 -2.47510585E+01  0.00000000E+00
  1.23755293E+01  1.23755293E+01 -2.47510585E+01  0.00000000E+00  1.23755293E+01
  1.23755293E+01 -2.47510585E+01  0.00000000E+00  1.23755293E+01  1.23755293E+01
 -2.47510585E+01  0.00000000E+00  1.23755293E+01  1.23755293E+01 -2.47510585E+01
  0.00000000E+00  1.23755293E+01  1.23755293E+01 -2.47510585E+01  0.00000000E+00
  1.23755293E+01  1.23755293E+01 -2.47510585E+01  0.00000000E+00  1.23755293E+01
  1.23755293E+01 -2.47510585E+01  0.00000000E+00  1.23755293E+01  1.23755293E+01
 -2.47510585E+01  0.00000000E+00  1.23755293E+01  1.23755293E+01 -2.47510585E+01
  0.00000000E+00  1.23755293E+01  1.23755293E+01 -2.47510585E+01  0.00000000E+00
  1.23755293E+01  1.23755293E+01 -2.47510585E+01  0.00000000E+00  1.23755293E+01
  1.23755293E+01 -2.47510585E+01  0.00000000E+00  1.23755293E+01  1.23755293E+01
 -2.47510585E+01  0.00000000E+00  1.23755293E+01  1.23755293E+01 -2.47510585E+01
  0.00000000E+00  1.23755293E+01  1.23755293E+01 -2.47510585E+01  0.00000000E+00
  1.23755293E+01  1.23755293E+01 -2.47510585E+01  0.00000000E+00  1.23755293E+01
  1.23755293E+01 -2.47510585E+01  0.00000000E+00  1.23755293E+01  1.23755293E+01
 -2.47510585E+01  0.00000000E+00  1.23755293E+01  1.23755293E+01 -2.47510585E+01
  0.00000000E+00  1.23755293E+01  1.23755293E+01 -2.47510585E+01  0.00000000E+00
  1.23755293E+01  1.23755293E+01 -2.47510585E+01  0.00000000E+00  1.23755293E+01
  1.23755293E+01 -2.47510585E+01  0.00000000E+00  1.23755293E+01  1.23755293E+01
 -2.47510585E+01  0.00000000E+00  1.23755293E+01  1.23755293E+01 -2.47510585E+01
  0.00000000E+00  1.23755293E+01  1.23755293E+01 -2.47510585E+01  0.00000000E+00
  1.23755293E+01  1.23755293E+01 -2.47510585E+01  0.00000000E+00  1.23755293E+01
  1.23755293E+01 -2.47510585E+01  0.00000000E+00  1.23755293E+01  1.23755293E+01
 -2.47510585E+01  0.00000000E+00  1.23755293E+01  1.23755293E+01 -2.47510585E+01
  0.00000000E+00  1.23755293E+01  1.23755293E+01 -2.47510585E+01  0.00000000E+00
  1.23755293E+01  1.23755293E+01 -2.47510585E+01  0.00000000E+00  1.23755293E+01
  1.23755293E+01 -2.47510585E+01  0.00000000E+00  1.23755293E+01  1.23755293E+01
 -2.47510585E+01  0.00000000E+00  1.23755293E+01  1.23755293E+01 -2.47510585E+01
  0.00000000E+00  1.23755293E+01  1.23755293E+01 -2.47510585E+01  0.00000000E+00
  1.23755293E+01  1.23755293E+01 -2.47510585E+01  0.00000000E+00  1.23755293E+01
  1.23755293E+01 -2.47510585E+01  0.00000000E+00  1.23755293E+01  1.23755293E+01
 -2.47510585E+01  0.00000000E+00  1.23755293E+01  1.23755293E+01 -2.47510585E+01
  0.00000000E+00  1.23755293E+01  1.23755293E+01 -2.47510585E+01  0.00000000E+00
  1.23755293E+01  1.23755293E+01 -2.47510585E+01  0.00000000E+00  1.23755293E+01
  1.23755293E+01 -2.47510585E+01  0.00000000E+00  1.23755293E+01  1.23755293E+01
 -2.47510585E+01  0.00000000E+00  1.23755293E+01  1.23755293E+01 -2.47510585E+01
  0.00000000E+00  1.23755293E+01  1.23755293E+01 -2.47510585E+01  0.00000000E+00
  1.23755293E+01  1.23755293E+01 -2.47510585E+01  0.00000000E+00  1.23755293E+01
  1.23755293E+01 -2.47510585E+01  0.00000000E+00  1.23755293E+01  1.23755293E+01
 -2.47510585E+01  0.00000000E+00  1.23755293E+01  1.23755293E+01 -2.47510585E+01
  0.00000000E+00  1.23755293E+01  1.23755293E+01 -2.47510585E+01  0.00000000E+00
  1.23755293E+01  1.23755293E+01 -2.47510585E+01  0.00000000E+00  1.23755293E+01
  1.23755293E+01 -2.47510585E+01  0.00000000E+00  1.23755293E+01  1.23755293E+01
 -2.47510585E+01  0.00000000E+00  1.23755293E+01  1.23755293E+01 -2.47510585E+01
  0.00000000E+00  1.23755293E+01  1.23755293E+01 -2.47510585E+01  0.00000000E+00
  1.23755293E+01  1.23755293E+01 -2.47510585E+01  0.00000000E+00  1.23755293E+01
  1.23755293E+01 -2.47510585E+01  0.00000000E+00  1.23755293E+01  1.23755293E+01
 -2.47510585E+01  0.00000000E+00  1.23755293E+01  1.23755293E+01 -2.47510585E+01
  0.00000000E+00  1.23755293E+01  1.23755293E+01 -2.47510585E+01  0.00000000E+00
  1.23755293E+01  1.23755293E+01 -2.47510585E+01  0.00000000E+00  1.23755293E+01
  1.23755293E+01 -2.47510585E+01  0.00000000E+00  1.23755293E+01  1.23755293E+01
 -2.47510585E+01  0.00000000E+00  1.23755293E+01  1.23755293E+01 -2.47510585E+01
  0.00000000E+00  1.23755293E+01  1.23755293E+01 -2.47510585E+01  0.00000000E+00
  1.23755293E+01  1.23755293E+01 -2.47510585E+01  0.00000000E+00  1.23755293E+01
  1.23755293E+01 -2.47510585E+01  0.00000000E+00  1.23755293E+01  1.23755293E+01
 -2.47510585E+01  0.00000000E+00  1.23755293E+01  1.23755293E+01 -2.47510585E+01
  0.00000000E+00  1.23755293E+01  1.23755293E+01 -2.47510585E+01  0.00000000E+00
  1.23755293E+01  1.23755293E+01 -2.47510585E+01  0.00000000E+00  1.23755293E+01
  1.23755293E+01 -2.47510585E+01  0.00000000E+00  1.23755293E+01  1.23755293E+01
 -2.47510585E+01  0.00000000E+00  1.23755293E+01  1.23755293E+01 -2.47510585E+01
  0.00000000E+00  1.23755293E+01  1.23755293E+01 -2.47510585E+01  0.00000000E+00
  1.23755293E+01  1.23755293E+01 -2.47510585E+01  0.00000000E+00  1.23755293E+01
  1.23755293E+01 -2.47510585E+01  0.00000000E+00  1.23755293E+01  1.23755293E+01
 -2.47510585E+01  0.00000000E+00  1.23755293E+01  1.23755293E+01 -2.47510585E+01
  0.00000000E+00  1.23755293E+01  1.23755293E+01 -2.47510585E+01  0.00000000E+00
  1.23755293E+01  1.23755293E+01 -2.47510585E+01  0.00000000E+00  1.23755293E+01
  1.23755293E+01 -2.47510585E+01  0.00000000E+00  1.23755293E+01  1.23755293E+01
 -2.47510585E+01  0.00000000E+00  1.23755293E+01  1.23755293E+01 -2.47510585E+01
  0.00000000E+00  1.23755293E+01  1.23755293E+01 -2.47510585E+01  0.00000000E+00
  1.23755293E+01  1.23755293E+01 -2.47510585E+01  0.00000000E+00  1.23755293E+01
  1.23755293E+01 -2.47510585E+01  0.00000000E+00  1.23755293E+01  1.23755293E+01
 -2.47510585E+01  0.00000000E+00  1.23755293E+01  1.23755293E+01 -2.47510585E+01
  0.00000000E+00  1.23755293E+01  1.23755293E+01 -2.47510585E+01  0.00000000E+00
  1.23755293E+01  1.23755293E+01 -2.47510585E+01  0.00000000E+00  1.23755293E+01
  1.23755293E+01 -2.47510585E+01  0.00000000E+00  1.23755293E+01  1.23755293E+01
 -2.47510585E+01  0.00000000E+00  1.23755293E+01  1.23755293E+01 -2.47510585E+01
  0.00000000E+00  1.23755293E+01  1.23755293E+01 -2.47510585E+01  0.00000000E+00
  1.23755293E+01  1.23755293E+01 -2.47510585E+01  0.00000000E+00  1.23755293E+01
  1.23755293E+01 -2.47510585E+01  0.00000000E+00  1.23755293E+01  1.23755293E+01
 -2.47510585E+01  0.00000000E+00  1.23755293E+01  1.23755293E+01 -2.47510585E+01
  0.00000000E+00  1.23755293E+01  1.23755293E+01 -2.47510585E+01  0.00000000E+00
  1.23755293E+01  1.23755293E+01 -2.47510585E+01  0.00000000E+00  1.23755293E+01
  1.23755293E+01 -2.47510585E+01  0.00000000E+00  1.23755293E+01  1.23755293E+01
 -2.47510585E+01  0.00000000E+00  1.23755293E+01  1.23755293E+01 -2.47510585E+01
  0.00000000E+00  1.23755293E+01  1.23755293E+01 -2.47510585E+01  0.00000000E+00
  1.23755293E+01  1.23755293E+01 -2.47510585E+01  0.00000000E+00  1.23755293E+01
  1.23755293E+01 -2.47510585E+01  0.00000000E+00  1.23755293E+01  1.23755293E+01
 -2.47510585E+01  0.00000000E+00  1.23755293E+01  1.23755293E+01 -2.47510585E+01
  0.00000000E+00  1.23755293E+01  1.23755293E+01 -2.47510585E+01  0.00000000E+00
  1.23755293E+01  1.23755293E+01 -2.47510585E+01  0.00000000E+00  1.23755293E+01
  1.23755293E+01 -2.47510585E+01  0.00000000E+00  1.23755293E+01  1.23755293E+01
 -2.47510585E+01  0.00000000E+00  1.23755293E+01  1.23755293E+01 -2.47510585E+01
  0.00000000E+00  1.23755293E+01  1.23755293E+01 -2.47510585E+01  0.00000000E+00
  1.23755293E+01  1.23755293E+01 -2.47510585E+01  0.00000000E+00  1.23755293E+01
  1.23755293E+01 -2.47510585E+01  0.00000000E+00  1.23755293E+01  1.23755293E+01
 -2.47510585E+01  0.00000000E+00  1.23755293E+01  1.23755293E+01 -2.47510585E+01
  0.00000000E+00  1.23755293E+01  1.23755293E+01 -2.47510585E+01  0.00000000E+00
  1.23755293E+01  1.23755293E+01 -2.47510585E+01  0.00000000E+00  1.23755293E+01
  1.23755293E+01 -2.47510585E+01  0.00000000E+00  1.23755293E+01  1.23755293E+01
 -2.47510585E+01  0.00000000E+00  1.23755293E+01  1.23755293E+01 -2.47510585E+01
  0.00000000E+00  1.23755293E+01  1.23755293E+01 -2.47510585E+01  0.00000000E+00
  1.23755293E+01  1.23755293E+01 -2.47510585E+01  0.00000000E+00  1.23755293E+01
  1.23755293E+01 -2.47510585E+01  0.00000000E+00  1.23755293E+01  1.23755293E+01
 -2.47510585E+01  0.00000000E+00  1.23755293E+01  1.23755293E+01 -2.47510585E+01
  0.00000000E+00  1.23755293E+01  1.23755293E+01 -2.47510585E+01  0.00000000E+00
  1.23755293E+01  1.23755293E+01 -2.47510585E+01  0.00000000E+00  1.23755293E+01
  1.23755293E+01 -2.47510585E+01  0.00000000E+00  1.23755293E+01  1.23755293E+01
 -2.47510585E+01  0.00000000E+00  1.23755293E+01  1.23755293E+01 -2.47510585E+01
  0.00000000E+00  1.23755293E+01  1.23755293E+01 -2.47510585E+01  0.00000000E+00
  1.23755293E+01  1.23755293E+01 -2.47510585E+01  0.00000000E+00  1.23755293E+01
  1.23755293E+01 -2.47510585E+01  0.00000000E+00  1.23755293E+01  1.23755293E+01
 -2.47510585E+01  0.00000000E+00  1.23755293E+01  1.23755293E+01 -2.47510585E+01
  0.00000000E+00  1.23755293E+01  1.23755293E+01 -2.47510585E+01  0.00000000E+00
  1.23755293E+01  1.23755293E+01 -2.47510585E+01  0.00000000E+00  1.23755293E+01
  1.23755293E+01 -2.47510585E+01  0.00000000E+00  1.23755293E+01  1.23755293E+01
 -2.47510585E+01  0.00000000E+00  1.23755293E+01  1.23755293E+01 -2.47510585E+01
  0.00000000E+00  1.23755293E+01  1.23755293E+01 -2.47510585E+01  0.00000000E+00
  1.23755293E+01  1.23755293E+01 -2.47510585E+01  0.00000000E+00  1.23755293E+01
  1.23755293E+01 -2.47510585E+01  0.00000000E+00  1.23755293E+01  1.23755293E+01
 -2.47510585E+01  0.00000000E+00  1.23755293E+01  1.23755293E+01 -2.47510585E+01
  0.00000000E+00  1.23755293E+01  1.23755293E+01 -2.47510585E+01  0.00000000E+00
  1.23755293E+01  1.23755293E+01 -2.47510585E+01  0.00000000E+00  1.23755293E+01
  1.23755293E+01 -2.47510585E+01  0.00000000E+00  1.23755293E+01  1.23755293E+01
 -2.47510585E+01  0.00000000E+00  1.23755293E+01  1.23755293E+01 -2.47510585E+01
  0.00000000E+00  1.23755293E+01  1.23755293E+01 -2.47510585E+01  0.00000000E+00
  1.23755293E+01  1.23755293E+01 -2.47510585E+01  0.00000000E+00  1.23755293E+01
  1.23755293E+01 -2.47510585E+01  0.00000000E+00  1.23755293E+01  1.23755293E+01
 -2.47510585E+01  0.00000000E+00  1.23755293E+01  1.23755293E+01 -2.47510585E+01
  0.00000000E+00  1.23755293E+01  1.23755293E+01 -2.47510585E+01  0.00000000E+00
  1.23755293E+01  1.23755293E+01 -2.47510585E+01  0.00000000E+00  1.23755293E+01
  1.23755293E+01 -2.47510585E+01  0.00000000E+00  1.23755293E+01  1.23755293E+01
 -2.47510585E+01  0.00000000E+00  1.23755293E+01  1.23755293E+01 -2.47510585E+01
  0.00000000E+00  1.23755293E+01  1.23755293E+01 -2.47510585E+01  0.00000000E+00
  1.23755293E+01  1.23755293E+01 -2.47510585E+01  0.00000000E+00  1.23755293E+01
  1.23755293E+01 -2.47510585E+01  0.00000000E+00  1.23755293E+01  1.23755293E+01
 -2.47510585E+01  0.00000000E+00  1.23755293E+01  1.23755293E+01 -2.47510585E+01
  0.00000000E+00  1.23755293E+01  1.23755293E+01 -2.47510585E+01  0.00000000E+00
  1.23755293E+01  1.23755293E+01 -2.47510585E+01  0.00000000E+00  1.23755293E+01
  1.23755293E+01 -2.47510585E+01  0.00000000E+00  1.23755293E+01  1.23755293E+01
 -2.47510585E+01  0.00000000E+00  1.23755293E+01  1.23755293E+01 -2.47510585E+01
  0.00000000E+00  1.23755293E+01  1.23755293E+01 -2.47510585E+01  0.00000000E+00
  1.23755293E+01  1.23755293E+01 -2.47510585E+01  0.00000000E+00  1.23755293E+01
  1.23755293E+01 -2.47510585E+01  0.00000000E+00  1.23755293E+01  1.23755293E+01
 -2.47510585E+01  0.00000000E+00  1.23755293E+01  1.23755293E+01 -2.47510585E+01
  0.00000000E+00  1.23755293E+01  1.23755293E+01 -2.47510585E+01  0.00000000E+00
  1.23755293E+01  1.23755293E+01 -2.47510585E+01  0.00000000E+00  1.23755293E+01
  1.23755293E+01 -2.47510585E+01  0.00000000E+00  1.23755293E+01  1.23755293E+01
 -2.47510585E+01  0.00000000E+00  1.23755293E+01  1.23755293E+01 -2.47510585E+01
  0.00000000E+00  1.23755293E+01  1.23755293E+01 -2.47510585E+01  0.00000000E+00
  1.23755293E+01  1.23755293E+01 -2.47510585E+01  0.00000000E+00  1.23755293E+01
  1.23755293E+01 -2.47510585E+01  0.00000000E+00  1.23755293E+01  1.23755293E+01
 -2.47510585E+01  0.00000000E+00  1.23755293E+01  1.23755293E+01 -2.47510585E+01
  0.00000000E+00  1.23755293E+01  1.23755293E+01 -2.47510585E+01  0.00000000E+00
  1.23755293E+01  1.23755293E+01 -2.47510585E+01  0.00000000E+00  1.23755293E+01
  1.23755293E+01 -2.47510585E+01  0.00000000E+00  1.23755293E+01  1.23755293E+01
 -2.47510585E+01  0.00000000E+00  1.23755293E+01  1.23755293E+01 -2.47510585E+01
  0.00000000E+00  1.23755293E+01  1.23755293E+01 -2.47510585E+01  0.00000000E+00
  1.23755293E+01  1.23755293E+01 -2.47510585E+01  0.00000000E+00  1.23755293E+01
  1.23755293E+01 -2.47510585E+01  0.00000000E+00  1.23755293E+01  1.23755293E+01
 -2.47510585E+01  0.00000000E+00  1.23755293E+01  1.23755293E+01 -2.47510585E+01
  0.00000000E+00  1.23755293E+01  1.23755293E+01 -2.47510585E+01  0.00000000E+00
  1.23755293E+01  1.23755293E+01 -2.47510585E+01  0.00000000E+00  1.23755293E+01
  1.23755293E+01 -2.47510585E+01  0.00000000E+00  1.23755293E+01  1.23755293E+01
 -2.47510585E+01  0.00000000E+00  1.23755293E+01  1.23755293E+01 -2.47510585E+01
  0.00000000E+00  1.23755293E+01  1.23755293E+01 -2.47510585E+01  0.00000000E+00
  1.23755293E+01  1.23755293E+01 -2.47510585E+01  0.00000000E+00  1.23755293E+01
  1.23755293E+01 -2.47510585E+01  0.00000000E+00  1.23755293E+01  1.23755293E+01
 -2.47510585E+01  0.00000000E+00  1.23755293E+01  1.23755293E+01 -2.47510585E+01
  0.00000000E+00  1.23755293E+01  1.23755293E+01 -2.47510585E+01  0.00000000E+00
  1.23755293E+01  1.23755293E+01 -2.47510585E+01  0.00000000E+00  1.23755293E+01
  1.23755293E+01 -2.47510585E+01  0.00000000E+00  1.23755293E+01  1.23755293E+01
 -2.47510585E+01  0.00000000E+00  1.23755293E+01  1.23755293E+01 -2.47510585E+01
  0.00000000E+00  1.23755293E+01  1.23755293E+01 -2.47510585E+01  0.00000000E+00
  1.23755293E+01  1.23755293E+01 -2.47510585E+01  0.00000000E+00  1.23755293E+01
  1.23755293E+01 -2.47510585E+01  0.00000000E+00  1.23755293E+01  1.23755293E+01
 -2.47510585E+01  0.00000000E+00  1.23755293E+01  1.23755293E+01 -2.47510585E+01
  0.00000000E+00  1.23755293E+01  1.23755293E+01 -2.47510585E+01  0.00000000E+00
  1.23755293E+01  1.23755293E+01 -2.47510585E+01  0.00000000E+00  1.23755293E+01
  1.23755293E+01 -2.47510585E+01  0.00000000E+00  1.23755293E+01  1.23755293E+01
 -2.47510585E+01  0.00000000E+00  1.23755293E+01  1.23755293E+01 -2.47510585E+01
  0.00000000E+00  1.23755293E+01  1.23755293E+01 -2.47510585E+01  0.00000000E+00
  1.23755293E+01  1.23755293E+01 -2.47510585E+01  0.00000000E+00  1.23755293E+01
  1.23755293E+01 -2.47510585E+01  0.00000000E+00  1.23755293E+01  1.23755293E+01
 -2.47510585E+01  0.00000000E+00  1.23755293E+01  1.23755293E+01 -2.47510585E+01
  0.00000000E+00  1.23755293E+01  1.23755293E+01 -2.47510585E+01  0.00000000E+00
  1.23755293E+01  1.23755293E+01 -2.47510585E+01  0.00000000E+00  1.23755293E+01
  1.23755293E+01 -2.47510585E+01  0.00000000E+00  1.23755293E+01  1.23755293E+01
 -2.47510585E+01  0.00000000E+00  1.23755293E+01  1.23755293E+01 -2.47510585E+01
  0.00000000E+00  1.23755293E+01  1.23755293E+01 -2.47510585E+01  0.00000000E+00
  1.23755293E+01  1.23755293E+01 -2.47510585E+01  0.00000000E+00  1.23755293E+01
  1.23755293E+01 -2.47510585E+01  0.00000000E+00  1.23755293E+01  1.23755293E+01
 -2.47510585E+01  0.00000000E+00  1.23755293E+01  1.23755293E+01 -2.47510585E+01
  0.00000000E+00  1.23755293E+01  1.23755293E+01 -2.47510585E+01  0.00000000E+00
  1.23755293E+01  1.23755293E+01 -2.47510585E+01  0.00000000E+00  1.23755293E+01
  1.23755293E+01 -2.47510585E+01  0.00000000E+00  1.23755293E+01  1.23755293E+01
 -2.47510585E+01  0.00000000E+00  1.23755293E+01  1.23755293E+01 -2.47510585E+01
  0.00000000E+00  1.23755293E+01  1.23755293E+01 -2.47510585E+01  0.00000000E+00
  1.23755293E+01  1.23755293E+01 -2.47510585E+01  0.00000000E+00  1.23755293E+01
  1.23755293E+01 -2.47510585E+01  0.00000000E+00  1.23755293E+01  1.23755293E+01
 -2.47510585E+01  0.00000000E+00  1.23755293E+01  1.23755293E+01 -2.47510585E+01
  0.00000000E+00  1.23755293E+01  1.23755293E+01 -2.47510585E+01  0.00000000E+00
  1.23755293E+01  1.23755293E+01 -2.47510585E+01  0.00000000E+00  1.23755293E+01
  1.23755293E+01 -2.47510585E+01  0.00000000E+00  1.23755293E+01  1.23755293E+01
 -2.47510585E+01  0.00000000E+00  1.23755293E+01  1.23755293E+01 -2.47510585E+01
  0.00000000E+00  1.23755293E+01  1.23755293E+01 -2.47510585E+01  0.00000000E+00
  1.23755293E+01  1.23755293E+01 -2.47510585E+01  0.00000000E+00  1.23755293E+01
  1.23755293E+01 -2.47510585E+01  0.00000000E+00  1.23755293E+01  1.23755293E+01
 -2.47510585E+01  0.00000000E+00  1.23755293E+01  1.23755293E+01 -2.47510585E+01
  0.00000000E+00  1.23755293E+01  1.23755293E+01 -2.47510585E+01  0.00000000E+00
  1.23755293E+01  1.23755293E+01 -2.47510585E+01  0.00000000E+00  1.23755293E+01
  1.23755293E+01 -2.47510585E+01  0.00000000E+00  1.23755293E+01  1.23755293E+01
 -2.47510585E+01  0.00000000E+00  1.23755293E+01  1.23755293E+01 -2.47510585E+01
  0.00000000E+00  1.23755293E+01  1.23755293E+01 -2.47510585E+01  0.00000000E+00
  1.23755293E+01  1.23755293E+01 -2.47510585E+01  0.00000000E+00  1.23755293E+01
  1.23755293E+01 -2.47510585E+01  0.00000000E+00  1.23755293E+01  1.23755293E+01
 -2.47510585E+01  0.00000000E+00  1.23755293E+01  1.23755293E+01 -2.47510585E+01
  0.00000000E+00  1.23755293E+01  1.23755293E+01 -2.47510585E+01  0.00000000E+00
  1.23755293E+01  1.23755293E+01 -2.47510585E+01  0.00000000E+00  1.23755293E+01
  1.23755293E+01 -2.47510585E+01  0.00000000E+00  1.23755293E+01  1.23755293E+01
 -2.47510585E+01  0.00000000E+00  1.23755293E+01  1.23755293E+01 -2.47510585E+01
  0.00000000E+00  1.23755293E+01  1.23755293E+01 -2.47510585E+01  0.00000000E+00
  1.23755293E+01  1.23755293E+01 -2.47510585E+01  0.00000000E+00  1.23755293E+01
  1.23755293E+01 -2.47510585E+01  0.00000000E+00  1.23755293E+01  1.23755293E+01
 -2.47510585E+01  0.00000000E+00  1.23755293E+01  1.23755293E+01 -2.47510585E+01
  0.00000000E+00  1.23755293E+01  1.23755293E+01 -2.47510585E+01  0.00000000E+00
  1.23755293E+01  1.23755293E+01 -2.47510585E+01  0.00000000E+00  1.23755293E+01
  1.23755293E+01 -2.47510585E+01  0.00000000E+00  1.23755293E+01  1.23755293E+01
 -2.47510585E+01  0.00000000E+00  1.23755293E+01  1.23755293E+01 -2.47510585E+01
  0.00000000E+00  1.23755293E+01  1.23755293E+01 -2.47510585E+01  0.00000000E+00
  1.23755293E+01  1.23755293E+01 -2.47510585E+01  0.00000000E+00  1.23755293E+01
  1.23755293E+01 -2.47510585E+01  0.00000000E+00  1.23755293E+01  1.23755293E+01
 -2.47510585E+01  0.00000000E+00  1.23755293E+01  1.23755293E+01 -2.47510585E+01
  0.00000000E+00  1.23755293E+01  1.23755293E+01 -2.47510585E+01  0.00000000E+00
  1.23755293E+01  1.23755293E+01 -2.47510585E+01  0.00000000E+00  1.23755293E+01
  1.23755293E+01 -2.47510585E+01  0.00000000E+00  1.23755293E+01  1.23755293E+01
 -2.47510585E+01  0.00000000E+00  1.23755293E+01  1.23755293E+01 -2.47510585E+01
  0.00000000E+00  1.23755293E+01  1.23755293E+01 -2.47510585E+01  0.00000000E+00
  1.23755293E+01  1.23755293E+01 -2.47510585E+01  0.00000000E+00  1.23755293E+01
  1.23755293E+01 -2.47510585E+01  0.00000000E+00  1.23755293E+01  1.23755293E+01
 -2.47510585E+01  0.00000000E+00  1.23755293E+01  1.23755293E+01 -2.47510585E+01
  0.00000000E+00  1.23755293E+01  1.23755293E+01 -2.47510585E+01  0.00000000E+00
  1.23755293E+01  1.23755293E+01 -2.47510585E+01  0.00000000E+00  1.23755293E+01
  1.23755293E+01 -2.47510585E+01  0.00000000E+00  1.23755293E+01  1.23755293E+01
 -2.47510585E+01  0.00000000E+00  1.23755293E+01  1.23755293E+01 -2.47510585E+01
  0.00000000E+00  1.23755293E+01  1.23755293E+01 -2.47510585E+01  0.00000000E+00
  1.23755293E+01  1.23755293E+01 -2.47510585E+01  0.00000000E+00  1.23755293E+01
  1.23755293E+01 -2.47510585E+01  0.00000000E+00  1.23755293E+01  1.23755293E+01
 -2.47510585E+01  0.00000000E+00  1.23755293E+01  1.23755293E+01 -2.47510585E+01
  0.00000000E+00  1.23755293E+01  1.23755293E+01 -2.47510585E+01  0.00000000E+00
  1.23755293E+01  1.23755293E+01 -2.47510585E+01  0.00000000E+00  1.23755293E+01
  1.23755293E+01 -2.47510585E+01  0.00000000E+00  1.23755293E+01  1.23755293E+01
 -2.47510585E+01  0.00000000E+00  1.23755293E+01  1.23755293E+01 -2.47510585E+01
  0.00000000E+00  1.23755293E+01  1.23755293E+01 -2.47510585E+01  0.00000000E+00
  1.23755293E+01  1.23755293E+01 -2.47510585E+01  0.00000000E+00  1.23755293E+01
  1.23755293E+01 -2.47510585E+01  0.00000000E+00  1.23755293E+01  1.23755293E+01
 -2.47510585E+01  0.00000000E+00  1.23755293E+01  1.23755293E+01 -2.47510585E+01
  0.00000000E+00  1.23755293E+01  1.23755293E+01 -2.47510585E+01  0.00000000E+00
  1.23755293E+01  1.23755293E+01 -2.47510585E+01  0.00000000E+00  1.23755293E+01
  1.23755293E+01 -2.47510585E+01  0.00000000E+00  1.23755293E+01  1.23755293E+01
 -2.47510585E+01  0.00000000E+00  1.23755293E+01  1.23755293E+01 -2.47510585E+01
  0.00000000E+00  1.23755293E+01  1.23755293E+01 -2.47510585E+01  0.00000000E+00
  1.23755293E+01  1.23755293E+01 -2.47510585E+01  0.00000000E+00  1.23755293E+01
  1.23755293E+01 -2.47510585E+01  0.00000000E+00  1.23755293E+01  1.23755293E+01
 -2.47510585E+01  0.00000000E+00  1.23755293E+01  1.23755293E+01 -2.47510585E+01
  0.00000000E+00  1.23755293E+01  1.23755293E+01 -2.47510585E+01  0.00000000E+00
  1.23755293E+01  1.23755293E+01 -2.47510585E+01  0.00000000E+00  1.23755293E+01
  1.23755293E+01 -2.47510585E+01  0.00000000E+00  1.23755293E+01  1.23755293E+01
 -2.47510585E+01  0.00000000E+00  1.23755293E+01  1.23755293E+01 -2.47510585E+01
  0.00000000E+00  1.23755293E+01  1.23755293E+01 -2.47510585E+01  0.00000000E+00
  1.23755293E+01  1.23755293E+01 -2.47510585E+01  0.00000000E+00  1.23755293E+01
  1.23755293E+01 -2.47510585E+01  0.00000000E+00  1.23755293E+01  1.23755293E+01
 -2.47510585E+01  0.00000000E+00  1.23755293E+01  1.23755293E+01 -2.47510585E+01
  0.00000000E+00  1.23755293E+01  1.23755293E+01 -2.47510585E+01  0.00000000E+00
  1.23755293E+01  1.23755293E+01 -2.47510585E+01  0.00000000E+00  1.23755293E+01
  1.23755293E+01 -2.47510585E+01  0.00000000E+00  1.23755293E+01  1.23755293E+01
 -2.47510585E+01  0.00000000E+00  1.23755293E+01  1.23755293E+01 -2.47510585E+01
  0.00000000E+00  1.23755293E+01  1.23755293E+01 -2.47510585E+01  0.00000000E+00
  1.23755293E+01  1.23755293E+01 -2.47510585E+01  0.00000000E+00  1.23755293E+01
  1.23755293E+01 -2.47510585E+01  0.00000000E+00  1.23755293E+01  1.23755293E+01
 -2.47510585E+01  0.00000000E+00  1.23755293E+01  1.23755293E+01 -2.47510585E+01
  0.00000000E+00  1.23755293E+01  1.23755293E+01 -2.47510585E+01  0.00000000E+00
  1.23755293E+01  1.23755293E+01 -2.47510585E+01  0.00000000E+00  1.23755293E+01
  1.23755293E+01 -2.47510585E+01  0.00000000E+00  1.23755293E+01  1.23755293E+01
 -2.47510585E+01  0.00000000E+00  1.23755293E+01  1.23755293E+01 -2.47510585E+01
  0.00000000E+00  1.23755293E+01  1.23755293E+01 -2.47510585E+01  0.00000000E+00
  1.23755293E+01  1.23755293E+01 -2.47510585E+01  0.00000000E+00  1.23755293E+01
  1.23755293E+01 -2.47510585E+01  0.00000000E+00  1.23755293E+01  1.23755293E+01
 -2.47510585E+01  0.00000000E+00  1.23755293E+01  1.23755293E+01 -2.47510585E+01
  0.00000000E+00  1.23755293E+01  1.23755293E+01 -2.47510585E+01  0.00000000E+00
  1.23755293E+01  1.23755293E+01 -2.47510585E+01  0.00000000E+00  1.23755293E+01
  1.23755293E+01 -2.47510585E+01  0.00000000E+00  1.23755293E+01  1.23755293E+01
 -2.47510585E+01  0.00000000E+00  1.23755293E+01  1.23755293E+01 -2.47510585E+01
  0.00000000E+00  1.23755293E+01  1.23755293E+01 -2.47510585E+01  0.00000000E+00
  1.23755293E+01  1.23755293E+01 -2.47510585E+01  0.00000000E+00  1.23755293E+01
  1.23755293E+01 -2.47510585E+01  0.00000000E+00  1.23755293E+01  1.23755293E+01
 -2.47510585E+01  0.00000000E+00  1.23755293E+01  1.23755293E+01 -2.47510585E+01
  0.00000000E+00  1.23755293E+01  1.23755293E+01 -2.47510585E+01  0.00000000E+00
  1.23755293E+01  1.23755293E+01 -2.47510585E+01  0.00000000E+00  1.23755293E+01
  1.23755293E+01 -2.47510585E+01  0.00000000E+00  1.23755293E+01  1.23755293E+01
 -2.47510585E+01  0.00000000E+00  1.23755293E+01  1.23755293E+01 -2.47510585E+01
  0.00000000E+00  1.23755293E+01  1.23755293E+01 -2.47510585E+01  0.00000000E+00
  1.23755293E+01  1.23755293E+01 -2.47510585E+01  0.00000000E+00  1.23755293E+01
  1.23755293E+01 -2.47510585E+01  0.00000000E+00  1.23755293E+01  1.23755293E+01
 -2.47510585E+01  0.00000000E+00  1.23755293E+01  1.23755293E+01 -2.47510585E+01
  0.00000000E+00  1.23755293E+01  1.23755293E+01 -2.47510585E+01  0.00000000E+00
  1.23755293E+01  1.23755293E+01 -2.47510585E+01  0.00000000E+00  1.23755293E+01
  1.23755293E+01 -2.47510585E+01  0.00000000E+00  1.23755293E+01  1.23755293E+01
 -2.47510585E+01  0.00000000E+00  1.23755293E+01  1.23755293E+01 -2.47510585E+01
  0.00000000E+00  1.23755293E+01  1.23755293E+01 -2.47510585E+01  0.00000000E+00
  1.23755293E+01  1.23755293E+01 -2.47510585E+01  0.00000000E+00  1.23755293E+01
  1.23755293E+01 -2.47510585E+01  0.00000000E+00  1.23755293E+01  1.23755293E+01
 -2.47510585E+01  0.00000000E+00  1.23755293E+01  1.23755293E+01 -2.47510585E+01
  0.00000000E+00  1.23755293E+01  1.23755293E+01 -2.47510585E+01  0.00000000E+00
  1.23755293E+01  1.23755293E+01 -2.47510585E+01  0.00000000E+00  1.23755293E+01
  1.23755293E+01 -2.47510585E+01  0.00000000E+00  1.23755293E+01  1.23755293E+01
 -2.47510585E+01  0.00000000E+00  1.23755293E+01  1.23755293E+01 -2.47510585E+01
  0.00000000E+00  1.23755293E+01  1.23755293E+01 -2.47510585E+01  0.00000000E+00
  1.23755293E+01  1.23755293E+01 -2.47510585E+01  0.00000000E+00  1.23755293E+01
  1.23755293E+01 -2.47510585E+01  0.00000000E+00  1.23755293E+01  1.23755293E+01
 -2.47510585E+01  0.00000000E+00  1.23755293E+01  1.23755293E+01 -2.47510585E+01
  0.00000000E+00  1.23755293E+01  1.23755293E+01 -2.47510585E+01  0.00000000E+00
  1.23755293E+01  1.23755293E+01 -2.47510585E+01  0.00000000E+00  1.23755293E+01
  1.23755293E+01 -2.47510585E+01  0.00000000E+00  1.23755293E+01  1.23755293E+01
 -2.47510585E+01  0.00000000E+00  1.23755293E+01  1.23755293E+01 -2.47510585E+01
  0.00000000E+00  1.23755293E+01  1.23755293E+01 -2.47510585E+01  0.00000000E+00
  1.23755293E+01  1.23755293E+01 -2.47510585E+01  0.00000000E+00  1.23755293E+01
  1.23755293E+01 -2.47510585E+01  0.00000000E+00  1.23755293E+01  1.23755293E+01
 -2.47510585E+01  0.00000000E+00  1.23755293E+01  1.23755293E+01 -2.47510585E+01
  0.00000000E+00  1.23755293E+01  1.23755293E+01 -2.47510585E+01  0.00000000E+00
  1.23755293E+01  1.23755293E+01 -2.47510585E+01  0.00000000E+00  1.23755293E+01
  1.23755293E+01 -2.47510585E+01  0.00000000E+00  1.23755293E+01  1.23755293E+01
 -2.47510585E+01  0.00000000E+00  1.23755293E+01  1.23755293E+01 -2.47510585E+01
  0.00000000E+00  1.23755293E+01  1.23755293E+01 -2.47510585E+01  0.00000000E+00
  1.23755293E+01  1.23755293E+01 -2.47510585E+01  0.00000000E+00  1.23755293E+01
  1.23755293E+01 -2.47510585E+01  0.00000000E+00  1.23755293E+01  1.23755293E+01
 -2.47510585E+01  0.00000000E+00  1.23755293E+01  1.23755293E+01 -2.47510585E+01
  0.00000000E+00  1.23755293E+01  1.23755293E+01 -2.47510585E+01  0.00000000E+00
  1.23755293E+01  1.23755293E+01 -2.47510585E+01  0.00000000E+00  1.23755293E+01
  1.23755293E+01 -2.47510585E+01  0.00000000E+00  1.23755293E+01  1.23755293E+01
 -2.47510585E+01  0.00000000E+00  1.23755293E+01  1.23755293E+01 -2.47510585E+01
  0.00000000E+00  1.23755293E+01  1.23755293E+01 -2.47510585E+01  0.00000000E+00
  1.23755293E+01  1.23755293E+01 -2.47510585E+01  0.00000000E+00  1.23755293E+01
  1.23755293E+01 -2.47510585E+01  0.00000000E+00  1.23755293E+01  1.23755293E+01
 -2.47510585E+01  0.00000000E+00  1.23755293E+01  1.23755293E+01 -2.47510585E+01
  0.00000000E+00  1.23755293E+01  1.23755293E+01 -2.47510585E+01  0.00000000E+00
  1.23755293E+01  1.23755293E+01 -2.47510585E+01  0.00000000E+00  1.23755293E+01
  1.23755293E+01 -2.47510585E+01  0.00000000E+00  1.23755293E+01  1.23755293E+01
 -2.47510585E+01  0.00000000E+00  1.23755293E+01  1.23755293E+01 -2.47510585E+01
  0.00000000E+00  1.23755293E+01  1.23755293E+01 -2.47510585E+01  0.00000000E+00
  1.23755293E+01  1.23755293E+01 -2.47510585E+01  0.00000000E+00  1.23755293E+01
  1.23755293E+01 -2.47510585E+01  0.00000000E+00  1.23755293E+01  1.23755293E+01
 -2.47510585E+01  0.00000000E+00  1.23755293E+01  1.23755293E+01 -2.47510585E+01
  0.00000000E+00  1.23755293E+01  1.23755293E+01 -2.47510585E+01  0.00000000E+00
  1.23755293E+01  1.23755293E+01 -2.47510585E+01  0.00000000E+00  1.23755293E+01
  1.23755293E+01 -2.47510585E+01  0.00000000E+00  1.23755293E+01  1.23755293E+01
 -2.47510585E+01  0.00000000E+00  1.23755293E+01  1.23755293E+01 -2.47510585E+01
  0.00000000E+00  1.23755293E+01  1.23755293E+01 -2.47510585E+01  0.00000000E+00
  1.23755293E+01  1.23755293E+01 -2.47510585E+01  0.00000000E+00  1.23755293E+01
  1.23755293E+01 -2.47510585E+01  0.00000000E+00  1.23755293E+01  1.23755293E+01
 -2.47510585E+01  0.00000000E+00  1.23755293E+01  1.23755293E+01 -2.47510585E+01
  0.00000000E+00  1.23755293E+01  1.23755293E+01 -2.47510585E+01  0.00000000E+00
  1.23755293E+01  1.23755293E+01 -2.47510585E+01  0.00000000E+00  1.23755293E+01
  1.23755293E+01 -2.47510585E+01  0.00000000E+00  1.23755293E+01  1.23755293E+01
 -2.47510585E+01  0.00000000E+00  1.23755293E+01  1.23755293E+01 -2.47510585E+01
  0.00000000E+00  1.23755293E+01  1.23755293E+01 -2.47510585E+01  0.00000000E+00
  1.23755293E+01  1.23755293E+01 -2.47510585E+01  0.00000000E+00  1.23755293E+01
  1.23755293E+01 -2.47510585E+01  0.00000000E+00  1.23755293E+01  1.23755293E+01
 -2.47510585E+01  0.00000000E+00  1.23755293E+01  1.23755293E+01 -2.47510585E+01
  0.00000000E+00  1.23755293E+01  1.23755293E+01 -2.47510585E+01  0.00000000E+00
  1.23755293E+01  1.23755293E+01 -2.47510585E+01  0.00000000E+00  1.23755293E+01
  1.23755293E+01 -2.47510585E+01  0.00000000E+00  1.23755293E+01  1.23755293E+01
 -2.47510585E+01  0.00000000E+00  1.23755293E+01  1.23755293E+01 -2.47510585E+01
  0.00000000E+00  1.23755293E+01  1.23755293E+01 -2.47510585E+01  0.00000000E+00
  1.23755293E+01  1.23755293E+01 -2.47510585E+01  0.00000000E+00  1.23755293E+01
  1.23755293E+01 -2.47510585E+01  0.00000000E+00  1.23755293E+01  1.23755293E+01
 -2.47510585E+01  0.00000000E+00  1.23755293E+01  1.23755293E+01 -2.47510585E+01
  0.00000000E+00  1.23755293E+01  1.23755293E+01 -2.47510585E+01  0.00000000E+00
  1.23755293E+01  1.23755293E+01 -2.47510585E+01  0.00000000E+00  1.23755293E+01
  1.23755293E+01 -2.47510585E+01  0.00000000E+00  1.23755293E+01  1.23755293E+01
 -2.47510585E+01  0.00000000E+00  1.23755293E+01  1.23755293E+01 -2.47510585E+01
  0.00000000E+00  1.23755293E+01  1.23755293E+01 -2.47510585E+01  0.00000000E+00
  1.23755293E+01  1.23755293E+01 -2.47510585E+01  0.00000000E+00  1.23755293E+01
  1.23755293E+01 -2.47510585E+01  0.00000000E+00  1.23755293E+01  1.23755293E+01
 -2.47510585E+01  0.00000000E+00  1.23755293E+01  1.23755293E+01 -2.47510585E+01
  0.00000000E+00  1.23755293E+01  1.23755293E+01 -2.47510585E+01  0.00000000E+00
  1.23755293E+01  1.23755293E+01 -2.47510585E+01  0.00000000E+00  1.23755293E+01
  1.23755293E+01 -2.47510585E+01  0.00000000E+00  1.23755293E+01  1.23755293E+01
 -2.47510585E+01  0.00000000E+00  1.23755293E+01  1.23755293E+01 -2.47510585E+01
  0.00000000E+00  1.23755293E+01  1.23755293E+01 -2.47510585E+01  0.00000000E+00
  1.23755293E+01  1.23755293E+01 -2.47510585E+01  0.00000000E+00  1.23755293E+01
  1.23755293E+01 -2.47510585E+01  0.00000000E+00  1.23755293E+01  1.23755293E+01
 -2.47510585E+01  0.00000000E+00  1.23755293E+01  1.23755293E+01 -2.47510585E+01
  0.00000000E+00  1.23755293E+01  1.23755293E+01 -2.47510585E+01  0.00000000E+00
  1.23755293E+01  1.23755293E+01 -2.47510585E+01  0.00000000E+00  1.23755293E+01
  1.23755293E+01 -2.47510585E+01  0.00000000E+00  1.23755293E+01  1.23755293E+01
 -2.47510585E+01  0.00000000E+00  1.23755293E+01  1.23755293E+01 -2.47510585E+01
  0.00000000E+00  1.23755293E+01  1.23755293E+01 -2.47510585E+01  0.00000000E+00
  1.23755293E+01  1.23755293E+01 -2.47510585E+01  0.00000000E+00  1.23755293E+01
  1.23755293E+01 -2.47510585E+01  0.00000000E+00  1.23755293E+01  1.23755293E+01
 -2.47510585E+01  0.00000000E+00  1.23755293E+01  1.23755293E+01 -2.47510585E+01
  0.00000000E+00  1.23755293E+01  1.23755293E+01 -2.47510585E+01  0.00000000E+00
  1.23755293E+01  1.23755293E+01 -2.47510585E+01  0.00000000E+00  1.23755293E+01
  1.23755293E+01 -2.47510585E+01  0.00000000E+00  1.23755293E+01  1.23755293E+01
 -2.47510585E+01  0.00000000E+00  1.23755293E+01  1.23755293E+01 -2.47510585E+01
  0.00000000E+00  1.23755293E+01  1.23755293E+01 -2.47510585E+01  0.00000000E+00
  1.23755293E+01  1.23755293E+01 -2.47510585E+01  0.00000000E+00  1.23755293E+01
  1.23755293E+01 -2.47510585E+01  0.00000000E+00  1.23755293E+01  1.23755293E+01
 -2.47510585E+01  0.00000000E+00  1.23755293E+01  1.23755293E+01 -2.47510585E+01
  0.00000000E+00  1.23755293E+01  1.23755293E+01 -2.47510585E+01  0.00000000E+00
  1.23755293E+01  1.23755293E+01 -2.47510585E+01  0.00000000E+00  1.23755293E+01
  1.23755293E+01 -2.47510585E+01  0.00000000E+00  1.23755293E+01  1.23755293E+01
 -2.47510585E+01  0.00000000E+00  1.23755293E+01  1.23755293E+01 -2.47510585E+01
  0.00000000E+00  1.23755293E+01  1.23755293E+01 -2.47510585E+01  0.00000000E+00
  1.23755293E+01  1.23755293E+01 -2.47510585E+01  0.00000000E+00  1.23755293E+01
  1.23755293E+01 -2.47510585E+01  0.00000000E+00  1.23755293E+01  1.23755293E+01
 -2.47510585E+01  0.00000000E+00  1.23755293E+01  1.23755293E+01 -2.47510585E+01
  0.00000000E+00  1.23755293E+01  1.23755293E+01 -2.47510585E+01  0.00000000E+00
  1.23755293E+01  1.23755293E+01 -2.47510585E+01  0.00000000E+00  1.23755293E+01
  1.23755293E+01 -2.47510585E+01  0.00000000E+00  1.23755293E+01  1.23755293E+01
 -2.47510585E+01
%FLAG ATOMIC_NUMBER
%FORMAT(10I8)
       7       1       1       1       6       1       6       1       1       8
       1       6       8       7       1       6       1       6       1       1
       6       1       6       1       1       1       6       1       1       1
       6       8       7       1       6       1       6       1       1       1
       6       8       7       1       6       1       6       1       1       6
       7       6       1       7       1       6       1       6       8       7
       1       6       1       6       1       1       8       1       6       8
       8       7       1       1       1       6       1       6       1       1
       6       1       6       1       1       1       6       1       1       1
       6       8       7       1       6       1       6       1       6       1
       1       1       6       1       1       1       6       8       7       1
       6       1       6       1       6       1       1       1       8       1
       6       8       7       1       6       1       6       1       1       6
       1       1       6       1       1       6       1       1       7       1
       1       1       6       8       7       1       6       1       6       1
       1       6       1       6       1       1       1       6       1       1
       1       6       8       8       6      16       6       6       6       6
       6       6       6      16       8       8       6       7       6       8
       7       1       1       6       6       6       6       6       6      35
       1       1       1       1       1       1       1       1       1       1
       1       1       1      17      11      11      11      11      11      11
      11      17      17      17      17      17      17      17       8       1
       1       0       8       1       1       0       8       1       1       0
       8       1       1       0       8       1       1       0       8       1
       1       0       8       1       1       0       8       1       1       0
       8       1       1       0       8       1       1       0       8       1
       1       0       8       1       1       0       8       1       1       0
       8       1       1       0       8       1       1       0       8       1
       1       0       8       1       1       0       8       1       1       0
       8       1       1       0       8       1       1       0       8       1
       1       0       8       1       1       0       8       1       1       0
       8       1       1       0       8       1       1       0       8       1
       1       0       8       1       1       0       8       1       1       0
       8       1       1       0       8       1       1       0       8       1
       1       0       8       1       1       0       8       1       1       0
       8       1       1       0       8       1       1       0       8       1
       1       0       8       1       1       0       8       1       1       0
       8       1       1       0       8       1       1       0       8       1
       1       0       8       1       1       0       8       1       1       0
       8       1       1       0       8       1       1       0       8       1
       1       0       8       1       1       0       8       1       1       0
       8       1       1       0       8       1       1       0       8       1
       1       0       8       1       1       0       8       1       1       0
       8       1       1       0       8       1       1       0       8       1
       1       0       8       1       1       0       8       1       1       0
       8       1       1       0       8       1       1       0       8       1
       1       0       8       1       1       0       8       1       1       0
       8       1       1       0       8       1       1       0       8       1
       1       0       8       1       1       0       8       1       1       0
       8       1       1       0       8       1       1       0       8       1
       1       0       8       1       1       0       8       1       1       0
       8       1       1       0       8       1       1       0       8       1
       1       0       8       1       1       0       8       1       1       0
       8       1       1       0       8       1       1       0       8       1
       1       0       8       1       1       0       8       1       1       0
       8       1       1       0       8       1       1       0       8       1
       1       0       8       1       1       0       8       1       1       0
       8       1       1       0       8       1       1       0       8       1
       1       0       8       1       1       0       8       1       1       0
       8       1       1       0       8       1       1       0       8       1
       1       0       8       1       1       0       8       1       1       0
       8       1       1       0       8       1       1       0       8       1
       1       0       8       1       1       0       8       1       1       0
       8       1       1       0       8       1       1       0       8       1
       1       0       8       1       1       0       8       1       1       0
       8       1       1       0       8       1       1       0       8       1
       1       0       8       1       1       0       8       1       1       0
       8       1       1       0       8       1       1       0       8       1
       1       0       8       1       1       0       8       1       1       0
       8       1       1       0       8       1       1       0       8       1
       1       0       8       1       1       0       8       1       1       0
       8       1       1       0       8       1       1       0       8       1
       1       0       8       1       1       0       8       1       1       0
       8       1       1       0       8       1       1       0       8       1
       1       0       8       1       1       0       8       1       1       0
       8       1       1       0       8       1       1       0       8       1
       1       0       8       1       1       0       8       1       1       0
       8       1       1       0       8       1       1       0       8       1
       1       0       8       1       1       0       8       1       1       0
       8       1       1       0       8       1       1       0       8       1
       1       0       8       1       1       0       8       1       1       0
       8       1       1       0       8       1       1       0       8       1
       1       0       8       1       1       0       8       1       1       0
       8       1       1       0       8       1       1       0       8       1
       1       0       8       1       1       0       8       1       1       0
       8       1       1       0       8       1       1       0       8       1
       1       0       8       1       1       0       8       1       1       0
       8       1       1       0       8       1       1       0       8       1
       1       0       8       1       1       0       8       1       1       0
       8       1       1       0       8       1       1       0       8       1
       1       0       8       1       1       0       8       1       1       0
       8       1       1       0       8       1       1       0       8       1
       1       0       8       1       1       0       8       1       1       0
       8       1       1       0       8       1       1       0       8       1
       1       0       8       1       1       0       8       1       1       0
       8       1       1       0       8       1       1       0       8       1
       1       0       8       1       1       0       8       1       1       0
       8       1       1       0       8       1       1       0       8       1
       1       0       8       1       1       0       8       1       1       0
       8       1       1       0       8       1       1       0       8       1
       1       0       8       1       1       0       8       1       1       0
       8       1       1       0       8       1       1       0       8       1
       1       0       8       1       1       0       8       1       1       0
       8       1       1       0       8       1       1       0       8       1
       1       0       8       1       1       0       8       1       1       0
       8       1       1       0       8       1       1       0       8       1
       1       0       8       1       1       0       8       1       1       0
       8       1       1       0       8       1       1       0       8       1
       1       0       8       1       1       0       8       1       1       0
       8       1       1       0       8       1       1       0       8       1
       1       0       8       1       1       0       8       1       1       0
       8       1       1       0       8       1       1       0       8       1
       1       0       8       1       1       0       8       1       1       0
       8       1       1       0       8       1       1       0       8       1
       1       0       8       1       1       0       8       1       1       0
       8       1       1       0       8       1       1       0       8       1
       1       0       8       1       1       0       8       1       1       0
       8       1       1       0       8       1       1       0       8       1
       1       0       8       1       1       0       8       1       1       0
       8       1       1       0       8       1       1       0       8       1
       1       0       8       1       1       0       8       1       1       0
       8       1       1       0       8       1       1       0       8       1
       1       0       8       1       1       0       8       1       1       0
       8       1       1       0       8       1       1       0       8       1
       1       0       8       1       1       0       8       1       1       0
       8       1       1       0       8       1       1       0       8       1
       1       0       8       1       1       0       8       1       1       0
       8       1       1       0       8       1       1       0       8       1
       1       0       8       1       1       0       8       1       1       0
       8       1       1       0       8       1       1       0       8       1
       1       0       8       1       1       0       8       1       1       0
       8       1       1       0       8       1       1       0       8       1
       1       0       8       1       1       0       8       1       1       0
       8       1       1       0       8       1       1       0       8       1
       1       0       8       1       1       0       8       1       1       0
       8       1       1       0       8       1       1       0       8       1
       1       0       8       1       1       0       8       1       1       0
       8       1       1       0       8       1       1       0       8       1
       1       0       8       1       1       0       8       1       1       0
       8       1       1       0       8       1       1       0       8       1
       1       0       8       1       1       0       8       1       1       0
       8       1       1       0       8       1       1       0       8       1
       1       0       8       1       1       0       8       1       1       0
       8       1       1       0       8       1       1       0       8       1
       1       0       8       1       1       0       8       1       1       0
       8       1       1       0       8       1       1       0       8       1
       1       0       8       1       1       0       8       1       1       0
       8       1       1       0       8       1       1       0       8       1
       1       0       8       1       1       0       8       1       1       0
       8       1       1       0       8       1       1       0       8       1
       1       0       8       1       1       0       8       1       1       0
       8       1       1       0       8       1       1       0       8       1
       1       0       8       1       1       0       8       1       1       0
       8       1       1       0       8       1       1       0       8       1
       1       0       8       1       1       0       8       1       1       0
       8       1       1       0       8       1       1       0       8       1
       1       0       8       1       1       0       8       1       1       0
       8       1       1       0       8       1       1       0       8       1
       1       0       8       1       1       0       8       1       1       0
       8       1       1       0       8       1       1       0       8       1
       1       0       8       1       1       0       8       1       1       0
       8       1       1       0       8       1       1       0       8       1
       1       0       8       1       1       0       8       1       1       0
       8       1       1       0       8       1       1       0       8       1
       1       0       8       1       1       0       8       1       1       0
       8       1       1       0       8       1       1       0       8       1
       1       0       8       1       1       0       8       1       1       0
       8       1       1       0       8       1       1       0       8       1
       1       0       8       1       1       0       8       1       1       0
       8       1       1       0       8       1       1       0       8       1
       1       0       8       1       1       0       8       1       1       0
       8       1       1       0       8       1       1       0       8       1
       1       0       8       1       1       0       8       1       1       0
       8       1       1       0       8       1       1       0       8       1
       1       0       8       1       1       0       8       1       1       0
       8       1       1       0       8       1       1       0       8       1
       1       0       8       1       1       0       8       1       1       0
       8       1       1       0       8       1       1       0       8       1
       1       0       8       1       1       0       8       1       1       0
       8       1       1       0       8       1       1       0       8       1
       1       0       8       1       1       0       8       1       1       0
       8       1       1       0       8       1       1       0       8       1
       1       0       8       1       1       0       8       1       1       0
       8       1       1       0       8       1       1       0       8       1
       1       0       8       1       1       0       8       1       1       0
       8       1       1       0       8       1       1       0       8       1
       1       0       8       1       1       0       8       1       1       0
       8       1       1       0       8       1       1       0       8       1
       1       0       8       1       1       0       8       1       1       0
       8       1       1       0       8       1       1       0       8       1
       1       0       8       1       1       0       8       1       1       0
       8       1       1       0       8       1       1       0       8       1
       1       0       8       1       1       0       8       1       1       0
       8       1       1       0       8       1       1       0       8       1
       1       0       8       1       1       0       8       1       1       0
       8       1       1       0       8       1       1       0       8       1
       1       0       8       1       1       0       8       1       1       0
       8       1       1       0       8       1       1       0       8       1
       1       0       8       1       1       0       8       1       1       0
       8       1       1       0       8       1       1       0       8       1
       1       0       8       1       1       0       8       1       1       0
       8       1       1       0       8       1       1       0       8       1
       1       0       8       1       1       0       8       1       1       0
       8       1       1       0       8       1       1       0       8       1
       1       0       8       1       1       0       8       1       1       0
       8       1       1       0       8       1       1       0       8       1
       1       0       8       1       1       0       8       1       1       0
       8       1       1       0       8       1       1       0       8       1
       1       0       8       1       1       0       8       1       1       0
       8       1       1       0       8       1       1       0       8       1
       1       0       8       1       1       0       8       1       1       0
       8       1       1       0       8       1       1       0       8       1
       1       0       8       1       1       0       8       1       1       0
       8       1       1       0       8       1       1       0       8       1
       1       0       8       1       1       0       8       1       1       0
       8       1       1       0       8       1       1       0       8       1
       1       0       8       1       1       0       8       1       1       0
       8       1       1       0       8       1       1       0       8       1
       1       0       8       1       1       0       8       1       1       0
       8       1       1       0       8       1       1       0       8       1
       1       0       8       1       1       0       8       1       1       0
       8       1       1       0       8       1       1       0       8       1
       1       0       8       1       1       0       8       1       1       0
       8       1       1       0       8       1       1       0       8       1
       1       0       8       1       1       0       8       1       1       0
       8       1       1       0       8       1       1       0       8       1
       1       0       8       1       1       0       8       1       1       0
       8       1       1       0       8       1       1       0       8       1
       1       0       8       1       1       0       8       1       1       0
       8       1       1       0       8       1       1       0       8       1
       1       0       8       1       1       0       8       1       1       0
       8       1       1       0       8       1       1       0       8       1
       1       0       8       1       1       0       8       1       1       0
       8       1       1       0       8       1       1       0       8       1
       1       0       8       1       1       0       8       1       1       0
       8       1       1       0       8       1       1       0       8       1
       1       0       8       1       1       0       8       1       1       0
       8       1       1       0       8       1       1       0       8       1
       1       0       8       1       1       0       8       1       1       0
       8       1       1       0       8       1       1       0       8       1
       1       0       8       1       1       0       8       1       1       0
       8       1       1       0       8       1       1       0       8       1
       1       0       8       1       1       0       8       1       1       0
       8       1       1       0       8       1       1       0       8       1
       1       0       8       1       1       0       8       1       1       0
       8       1       1       0       8       1       1       0       8       1
       1       0       8       1       1       0       8       1       1       0
       8       1       1       0       8       1       1       0       8       1
       1       0       8       1       1       0       8       1       1       0
       8       1       1       0       8       1       1       0       8       1
       1       0       8       1       1       0       8       1       1       0
       8       1       1       0       8       1       1       0       8       1
       1       0       8       1       1       0       8       1       1       0
       8       1       1       0       8       1       1       0       8       1
       1       0       8       1       1       0       8       1       1       0
       8       1       1       0       8       1       1       0       8       1
       1       0       8       1       1       0       8       1       1       0
       8       1       1       0       8       1       1       0       8       1
       1       0       8       1       1       0       8       1       1       0
       8       1       1       0       8       1       1       0       8       1
       1       0       8       1       1       0       8       1       1       0
       8       1       1       0       8       1       1       0       8       1
       1       0       8       1       1       0       8       1       1       0
       8       1       1       0       8       1       1       0       8       1
       1       0       8       1       1       0       8       1       1       0
       8       1       1       0       8       1       1       0       8       1
       1       0       8       1       1       0       8       1       1       0
       8       1       1       0       8       1       1       0       8       1
       1       0       8       1       1       0       8       1       1       0
       8       1       1       0       8       1       1       0       8       1
       1       0       8       1       1       0       8       1       1       0
       8       1       1       0       8       1       1       0       8       1
       1       0       8       1       1       0       8       1       1       0
       8       1       1       0       8       1       1       0       8       1
       1       0       8       1       1       0       8       1       1       0
       8       1       1       0       8       1       1       0       8       1
       1       0       8       1       1       0       8       1       1       0
       8       1       1       0       8       1       1       0       8       1
       1       0       8       1       1       0       8       1       1       0
       8       1       1       0       8       1       1       0       8       1
       1       0       8       1       1       0       8       1       1       0
       8       1       1       0       8       1       1       0       8       1
       1       0       8       1       1       0       8       1       1       0
       8       1       1       0       8       1       1       0       8       1
       1       0       8       1       1       0       8       1       1       0
       8       1       1       0       8       1       1       0       8       1
       1       0       8       1       1       0       8       1       1       0
       8       1       1       0       8       1       1       0       8       1
       1       0       8       1       1       0       8       1       1       0
       8       1       1       0       8       1       1       0       8       1
       1       0       8       1       1       0       8       1       1       0
       8       1       1       0       8       1       1       0       8       1
       1       0       8       1       1       0       8       1       1       0
       8       1       1       0       8       1       1       0       8       1
       1       0       8       1       1       0       8       1       1       0
       8       1       1       0       8       1       1       0       8       1
       1       0       8       1       1       0       8       1       1       0
       8       1       1       0       8       1       1       0       8       1
       1       0       8       1       1       0       8       1       1       0
       8       1       1       0       8       1       1       0       8       1
       1       0       8       1       1       0       8       1       1       0
       8       1       1       0       8       1       1       0       8       1
       1       0       8       1       1       0       8       1       1       0
       8       1       1       0       8       1       1       0       8       1
       1       0       8       1       1       0       8       1       1       0
       8       1       1       0       8       1       1       0       8       1
       1       0       8       1       1       0       8       1       1       0
       8       1       1       0       8       1       1       0       8       1
       1       0       8       1       1       0       8       1       1       0
       8       1       1       0       8       1       1       0       8       1
       1       0       8       1       1       0       8       1       1       0
       8       1       1       0       8       1       1       0       8       1
       1       0       8       1       1       0       8       1       1       0
       8       1       1       0       8       1       1       0       8       1
       1       0       8       1       1       0       8       1       1       0
       8       1       1       0       8       1       1       0       8       1
       1       0       8       1       1       0       8       1       1       0
       8       1       1       0       8       1       1       0       8       1
       1       0       8       1       1       0       8       1       1       0
       8       1       1       0       8       1       1       0       8       1
       1       0       8       1       1       0       8       1       1       0
       8       1       1       0       8       1       1       0       8       1
       1       0       8       1       1       0       8       1       1       0
       8       1       1       0       8       1       1       0       8       1
       1       0       8       1       1       0       8       1       1       0
       8       1       1       0       8       1       1       0       8       1
       1       0       8       1       1       0       8       1       1       0
       8       1       1       0       8       1       1       0       8       1
       1       0       8       1       1       0       8       1       1       0
       8       1       1       0       8       1       1       0       8       1
       1       0       8       1       1       0       8       1       1       0
       8       1       1       0       8       1       1       0       8       1
       1       0       8       1       1       0       8       1       1       0
       8       1       1       0       8       1       1       0       8       1
       1       0       8       1       1       0       8       1       1       0
       8       1       1       0       8       1       1       0       8       1
       1       0       8       1       1       0       8       1       1       0
       8       1       1       0       8       1       1       0       8       1
       1       0       8       1       1       0       8       1       1       0
       8       1       1       0       8       1       1       0       8       1
       1       0       8       1       1       0       8       1       1       0
       8       1       1       0       8       1       1       0       8       1
       1       0       8       1       1       0       8       1       1       0
       8       1       1       0       8       1       1       0       8       1
       1       0       8       1       1       0       8       1       1       0
       8       1       1       0       8       1       1       0       8       1
       1       0       8       1       1       0       8       1       1       0
       8       1       1       0       8       1       1       0       8       1
       1       0       8       1       1       0       8       1       1       0
       8       1       1       0       8       1       1       0       8       1
       1       0       8       1       1       0       8       1       1       0
       8       1       1       0       8       1       1       0       8       1
       1       0       8       1       1       0       8       1       1       0
       8       1       1       0       8       1       1       0       8       1
       1       0       8       1       1       0       8       1       1       0
       8       1       1       0       8       1       1       0       8       1
       1       0       8       1       1       0       8       1       1       0
       8       1       1       0       8       1       1       0       8       1
       1       0       8       1       1       0       8       1       1       0
       8       1       1       0       8       1       1       0       8       1
       1       0       8       1       1       0       8       1       1       0
       8       1       1       0       8       1       1       0       8       1
       1       0       8       1       1       0       8       1       1       0
       8       1       1       0       8       1       1       0       8       1
       1       0       8       1       1       0       8       1       1       0
       8       1       1       0       8       1       1       0       8       1
       1       0       8       1       1       0       8       1       1       0
       8       1       1       0       8       1       1       0       8       1
       1       0       8       1       1       0       8       1       1       0
       8       1       1       0       8       1       1       0       8       1
       1       0       8       1       1       0       8       1       1       0
       8       1       1       0       8       1       1       0       8       1
       1       0       8       1       1       0       8       1       1       0
       8       1       1       0       8       1       1       0       8       1
       1       0       8       1       1       0       8       1       1       0
       8       1       1       0       8       1       1       0       8       1
       1       0       8       1       1       0       8       1       1       0
       8       1       1       0       8       1       1       0       8       1
       1       0       8       1       1       0       8       1       1       0
       8       1       1       0       8       1       1       0       8       1
       1       0       8       1       1       0       8       1       1       0
       8       1       1       0       8       1       1       0       8       1
       1       0       8       1       1       0       8       1       1       0
       8       1       1       0       8       1       1       0       8       1
       1       0       8       1       1       0       8       1       1       0
       8       1       1       0       8       1       1       0       8       1
       1       0       8       1       1       0       8       1       1       0
       8       1       1       0       8       1       1       0       8       1
       1       0       8       1       1       0       8       1       1       0
       8       1       1       0       8       1       1       0       8       1
       1       0       8       1       1       0       8       1       1       0
       8       1       1       0       8       1       1       0       8       1
       1       0       8       1       1       0       8       1       1       0
       8       1       1       0       8       1       1       0       8       1
       1       0       8       1       1       0       8       1       1       0
       8       1       1       0       8       1       1       0       8       1
       1       0       8       1       1       0       8       1       1       0
       8       1       1       0       8       1       1       0       8       1
       1       0       8       1       1       0       8       1       1       0
       8       1       1       0       8       1       1       0       8       1
       1       0       8       1       1       0       8       1       1       0
       8       1       1       0       8       1       1       0       8       1
       1       0       8       1       1       0       8       1       1       0
       8       1       1       0       8       1       1       0       8       1
       1       0       8       1       1       0       8       1       1       0
       8       1       1       0       8       1       1       0       8       1
       1       0       8       1       1       0       8       1       1       0
       8       1       1       0       8       1       1       0       8       1
       1       0       8       1       1       0       8       1       1       0
       8       1       1       0       8       1       1       0       8       1
       1       0       8       1       1       0       8       1       1       0
       8       1       1       0       8       1       1       0       8       1
       1       0       8       1       1       0       8       1       1       0
       8       1       1       0       8       1       1       0       8       1
       1       0       8       1       1       0       8       1       1       0
       8       1       1       0       8       1       1       0       8       1
       1       0       8       1       1       0       8       1       1       0
       8       1       1       0       8       1       1       0       8       1
       1       0       8       1       1       0       8       1       1       0
       8       1       1       0       8       1       1       0       8       1
       1       0       8       1       1       0       8       1       1       0
       8       1       1       0       8       1       1       0       8       1
       1       0       8       1       1       0       8       1       1       0
       8       1       1       0       8       1       1       0       8       1
       1       0       8       1       1       0       8       1       1       0
       8       1       1       0       8       1       1       0       8       1
       1       0       8       1       1       0       8       1       1       0
       8       1       1       0       8       1       1       0       8       1
       1       0       8       1       1       0       8       1       1       0
       8       1       1       0       8       1       1       0       8       1
       1       0       8       1       1       0       8       1       1       0
       8       1       1       0       8       1       1       0       8       1
       1       0       8       1       1       0       8       1       1       0
       8       1       1       0       8       1       1       0       8       1
       1       0       8       1       1       0       8       1       1       0
       8       1       1       0       8       1       1       0       8       1
       1       0       8       1       1       0       8       1       1       0
       8       1       1       0       8       1       1       0       8       1
       1       0       8       1       1       0       8       1       1       0
       8       1       1       0       8       1       1       0       8       1
       1       0       8       1       1       0       8       1       1       0
       8       1       1       0       8       1       1       0       8       1
       1       0       8       1       1       0       8       1       1       0
       8       1       1       0       8       1       1       0       8       1
       1       0       8       1       1       0       8       1       1       0
       8       1       1       0       8       1       1       0       8       1
       1       0       8       1       1       0       8       1       1       0
       8       1       1       0       8       1       1       0       8       1
       1       0       8       1       1       0       8       1       1       0
       8       1       1       0       8       1       1       0       8       1
       1       0       8       1       1       0       8       1       1       0
       8       1       1       0       8       1       1       0       8       1
       1       0       8       1       1       0       8       1       1       0
       8       1       1       0       8       1       1       0       8       1
       1       0       8       1       1       0       8       1       1       0
       8       1       1       0       8       1       1       0       8       1
       1       0       8       1       1       0       8       1       1       0
       8       1       1       0       8       1       1       0       8       1
       1       0       8       1       1       0       8       1       1       0
       8       1       1       0       8       1       1       0       8       1
       1       0       8       1       1       0       8       1       1       0
       8       1       1       0       8       1       1       0       8       1
       1       0       8       1       1       0       8       1       1       0
       8       1       1       0       8       1       1       0       8       1
       1       0       8       1       1       0       8       1       1       0
       8       1       1       0       8       1       1       0       8       1
       1       0       8       1       1       0       8       1       1       0
       8       1       1       0       8       1       1       0       8       1
       1       0       8       1       1       0       8       1       1       0
       8       1       1       0       8       1       1       0       8       1
       1       0       8       1       1       0       8       1       1       0
       8       1       1       0       8       1       1       0       8       1
       1       0       8       1       1       0       8       1       1       0
       8       1       1       0       8       1       1       0       8       1
       1       0       8       1       1       0       8       1       1       0
       8       1       1       0       8       1       1       0       8       1
       1       0       8       1       1       0       8       1       1       0
       8       1       1       0       8       1       1       0       8       1
       1       0       8       1       1       0       8       1       1       0
       8       1       1       0       8       1       1       0       8       1
       1       0       8       1       1       0       8       1       1       0
       8       1       1       0       8       1       1       0       8       1
       1       0       8       1       1       0       8       1       1       0
       8       1       1       0       8       1       1       0       8       1
       1       0       8       1       1       0       8       1       1       0
       8       1       1       0       8       1       1       0       8       1
       1       0       8       1       1       0       8       1       1       0
       8       1       1       0       8       1       1       0       8       1
       1       0       8       1       1       0       8       1       1       0
       8       1       1       0       8       1       1       0       8       1
       1       0       8       1       1       0       8       1       1       0
       8       1       1       0       8       1       1       0       8       1
       1       0       8       1       1       0       8       1       1       0
       8       1       1       0       8       1       1       0       8       1
       1       0       8       1       1       0       8       1       1       0
       8       1       1       0       8       1       1       0       8       1
       1       0       8       1       1       0       8       1       1       0
       8       1       1       0       8       1       1       0       8       1
       1       0       8       1       1       0       8       1       1       0
       8       1       1       0       8       1       1       0       8       1
       1       0       8       1       1       0       8       1       1       0
       8       1       1       0       8       1       1       0       8       1
       1       0       8       1       1       0       8       1       1       0
       8       1       1       0       8       1       1       0       8       1
       1       0       8       1       1       0       8       1       1       0
       8       1       1       0       8       1       1       0       8       1
       1       0       8       1       1       0       8       1       1       0
       8       1       1       0       8       1       1       0       8       1
       1       0       8       1       1       0       8       1       1       0
       8       1       1       0       8       1       1       0       8       1
       1       0       8       1       1       0       8       1       1       0
       8       1       1       0       8       1       1       0       8       1
       1       0       8       1       1       0       8       1       1       0
       8       1       1       0       8       1       1       0       8       1
       1       0       8       1       1       0       8       1       1       0
       8       1       1       0       8       1       1       0       8       1
       1       0       8       1       1       0       8       1       1       0
       8       1       1       0       8       1       1       0       8       1
       1       0       8       1       1       0       8       1       1       0
       8       1       1       0       8       1       1       0       8       1
       1       0       8       1       1       0       8       1       1       0
       8       1       1       0       8       1       1       0       8       1
       1       0       8       1       1       0       8       1       1       0
       8       1       1       0       8       1       1       0       8       1
       1       0       8       1       1       0       8       1       1       0
       8       1       1       0       8       1       1       0       8       1
       1       0       8       1       1       0       8       1       1       0
       8       1       1       0       8       1       1       0       8       1
       1       0       8       1       1       0       8       1       1       0
       8       1       1       0       8       1       1       0       8       1
       1       0       8       1       1       0       8       1       1       0
       8       1       1       0       8       1       1       0       8       1
       1       0       8       1       1       0       8       1       1       0
       8       1       1       0       8       1       1       0       8       1
       1       0       8       1       1       0       8       1       1       0
       8       1       1       0       8       1       1       0       8       1
       1       0       8       1       1       0       8       1       1       0
       8       1       1       0       8       1       1       0       8       1
       1       0       8       1       1       0       8       1       1       0
       8       1       1       0       8       1       1       0       8       1
       1       0       8       1       1       0       8       1       1       0
       8       1       1       0       8       1       1       0       8       1
       1       0       8       1       1       0       8       1       1       0
       8       1       1       0       8       1       1       0       8       1
       1       0       8       1       1       0       8       1       1       0
       8       1       1       0       8       1       1       0       8       1
       1       0       8       1       1       0       8       1       1       0
       8       1       1       0       8       1       1       0       8       1
       1       0       8       1       1       0       8       1       1       0
       8       1       1       0       8       1       1       0       8       1
       1       0       8       1       1       0       8       1       1       0
       8       1       1       0       8       1       1       0       8       1
       1       0       8       1       1       0       8       1       1       0
       8       1       1       0       8       1       1       0       8       1
       1       0       8       1       1       0       8       1       1       0
       8       1       1       0       8       1       1       0       8       1
       1       0       8       1       1       0       8       1       1       0
       8       1       1       0       8       1       1       0       8       1
       1       0       8       1       1       0       8       1       1       0
       8       1       1       0       8       1       1       0       8       1
       1       0       8       1       1       0       8       1       1       0
       8       1       1       0       8       1       1       0       8       1
       1       0       8       1       1       0       8       1       1       0
       8       1       1       0       8       1       1       0       8       1
       1       0       8       1       1       0       8       1       1       0
       8       1       1       0       8       1       1       0       8       1
       1       0       8       1       1       0       8       1       1       0
       8       1       1       0       8       1       1       0       8       1
       1       0       8       1       1       0       8       1       1       0
       8       1       1       0       8       1       1       0       8       1
       1       0       8       1       1       0       8       1       1       0
       8       1       1       0       8       1       1       0       8       1
       1       0       8       1       1       0       8       1       1       0
       8       1       1       0       8       1       1       0       8       1
       1       0       8       1       1       0       8       1       1       0
       8       1       1       0       8       1       1       0       8       1
       1       0       8       1       1       0       8       1       1       0
       8       1       1       0       8       1       1       0       8       1
       1       0       8       1       1       0       8       1       1       0
       8       1       1       0       8       1       1       0       8       1
       1       0       8       1       1       0       8       1       1       0
       8       1       1       0       8       1       1       0       8       1
       1       0       8       1       1       0       8       1       1       0
       8       1       1       0       8       1       1       0       8       1
       1       0       8       1       1       0       8       1       1       0
       8       1       1       0       8       1       1       0       8       1
       1       0       8       1       1       0       8       1       1       0
       8       1       1       0       8       1       1       0       8       1
       1       0       8       1       1       0       8       1       1       0
       8       1       1       0       8       1       1       0       8       1
       1       0       8       1       1       0       8       1       1       0
       8       1       1       0       8       1       1       0       8       1
       1       0       8       1       1       0       8       1       1       0
       8       1       1       0       8       1       1       0       8       1
       1       0       8       1       1       0       8       1       1       0
       8       1       1       0       8       1       1       0       8       1
       1       0       8       1       1       0       8       1       1       0
       8       1       1       0       8       1       1       0       8       1
       1       0       8       1       1       0       8       1       1       0
       8       1       1       0       8       1       1       0       8       1
       1       0       8       1       1       0       8       1       1       0
       8       1       1       0       8       1       1       0       8       1
       1       0       8       1       1       0       8       1       1       0
       8       1       1       0       8       1       1       0       8       1
       1       0       8       1       1       0       8       1       1       0
       8       1       1       0       8       1       1       0       8       1
       1       0       8       1       1       0       8       1       1       0
       8       1       1       0       8       1       1       0       8       1
       1       0       8       1       1       0       8       1       1       0
       8       1       1       0       8       1       1       0       8       1
       1       0       8       1       1       0       8       1       1       0
       8       1       1       0       8       1       1       0       8       1
       1       0       8       1       1       0       8       1       1       0
       8       1       1       0       8       1       1       0       8       1
       1       0       8       1       1       0       8       1       1       0
       8       1       1       0       8       1       1       0       8       1
       1       0       8       1       1       0       8       1       1       0
       8       1       1       0       8       1       1       0       8       1
       1       0       8       1       1       0       8       1       1       0
       8       1       1       0       8       1       1       0       8       1
       1       0       8       1       1       0       8       1       1       0
       8       1       1       0       8       1       1       0       8       1
       1       0       8       1       1       0       8       1       1       0
       8       1       1       0       8       1       1       0       8       1
       1       0       8       1       1       0       8       1       1       0
       8       1       1       0       8       1       1       0       8       1
       1       0       8       1       1       0       8       1       1       0
       8       1       1       0       8       1       1       0       8       1
       1       0       8       1       1       0       8       1       1       0
       8       1       1       0       8       1       1       0       8       1
       1       0       8       1       1       0       8       1       1       0
       8       1       1       0       8       1       1       0       8       1
       1       0       8       1       1       0       8       1       1       0
       8       1       1       0       8       1       1       0       8       1
       1       0       8       1       1       0       8       1       1       0
       8       1       1       0       8       1       1       0       8       1
       1       0       8       1       1       0       8       1       1       0
       8       1       1       0       8       1       1       0       8       1
       1       0       8       1       1       0       8       1       1       0
       8       1       1       0       8       1       1       0       8       1
       1       0       8       1       1       0       8       1       1       0
       8       1       1       0       8       1       1       0       8       1
       1       0       8       1       1       0       8       1       1       0
       8       1       1       0       8       1       1       0       8       1
       1       0       8       1       1       0       8       1       1       0
       8       1       1       0       8       1       1       0       8       1
       1       0       8       1       1       0       8       1       1       0
       8       1       1       0       8       1       1       0       8       1
       1       0       8       1       1       0       8       1       1       0
       8       1       1       0       8       1       1       0       8       1
       1       0       8       1       1       0       8       1       1       0
       8       1       1       0       8       1       1       0       8       1
       1       0       8       1       1       0       8       1       1       0
       8       1       1       0       8       1       1       0       8       1
       1       0       8       1       1       0       8       1       1       0
       8       1       1       0       8       1       1       0       8       1
       1       0       8       1       1       0       8       1       1       0
       8       1       1       0       8       1       1       0       8       1
       1       0       8       1       1       0       8       1       1       0
       8       1       1       0       8       1       1       0       8       1
       1       0       8       1       1       0       8       1       1       0
       8       1       1       0       8       1       1       0       8       1
       1       0       8       1       1       0       8       1       1       0
       8       1       1       0       8       1       1       0       8       1
       1       0       8       1       1       0       8       1       1       0
       8       1       1       0       8       1       1       0       8       1
       1       0       8       1       1       0       8       1       1       0
       8       1       1       0       8       1       1       0       8       1
       1       0       8       1       1       0       8       1       1       0
       8       1       1       0       8       1       1       0       8       1
       1       0       8       1       1       0       8       1       1       0
       8       1       1       0       8       1       1       0       8       1
       1       0       8       1       1       0       8       1       1       0
       8       1       1       0       8       1       1       0       8       1
       1       0       8       1       1       0       8       1       1       0
       8       1       1       0       8       1       1       0       8       1
       1       0       8       1       1       0       8       1       1       0
       8       1       1       0       8       1       1       0       8       1
       1       0       8       1       1       0       8       1       1       0
       8       1       1       0       8       1       1       0       8       1
       1       0       8       1       1       0       8       1       1       0
       8       1       1       0       8       1       1       0       8       1
       1       0       8       1       1       0       8       1       1       0
       8       1       1       0       8       1       1       0       8       1
       1       0       8       1       1       0       8       1       1       0
       8       1       1       0       8       1       1       0       8       1
       1       0       8       1       1       0       8       1       1       0
       8       1       1       0       8       1       1       0       8       1
       1       0       8       1       1       0       8       1       1       0
       8       1       1       0       8       1       1       0       8       1
       1       0       8       1       1       0       8       1       1       0
       8       1       1       0       8       1       1       0       8       1
       1       0       8       1       1       0       8       1       1       0
       8       1       1       0       8       1       1       0       8       1
       1       0       8       1       1       0       8       1       1       0
       8       1       1       0       8       1       1       0       8       1
       1       0       8       1       1       0       8       1       1       0
       8       1       1       0       8       1       1       0       8       1
       1       0       8       1       1       0       8       1       1       0
       8       1       1       0       8       1       1       0       8       1
       1       0       8       1       1       0       8       1       1       0
       8       1       1       0       8       1       1       0       8       1
       1       0       8       1       1       0       8       1       1       0
       8       1       1       0       8       1       1       0       8       1
       1       0       8       1       1       0       8       1       1       0
       8       1       1       0       8       1       1       0       8       1
       1       0       8       1       1       0       8       1       1       0
       8       1       1       0       8       1       1       0       8       1
       1       0       8       1       1       0       8       1       1       0
       8       1       1       0       8       1       1       0       8       1
       1       0       8       1       1       0       8       1       1       0
       8       1       1       0       8       1       1       0       8       1
       1       0       8       1       1       0       8       1       1       0
       8       1       1       0       8       1       1       0       8       1
       1       0       8       1       1       0       8       1       1       0
       8       1       1       0       8       1       1       0       8       1
       1       0       8       1       1       0       8       1       1       0
       8       1       1       0       8       1       1       0       8       1
       1       0       8       1       1       0       8       1       1       0
       8       1       1       0       8       1       1       0       8       1
       1       0       8       1       1       0       8       1       1       0
       8       1       1       0       8       1       1       0       8       1
       1       0       8       1       1       0       8       1       1       0
       8       1       1       0       8       1       1       0       8       1
       1       0       8       1       1       0       8       1       1       0
       8       1       1       0       8       1       1       0       8       1
       1       0       8       1       1       0       8       1       1       0
       8       1       1       0       8       1       1       0       8       1
       1       0       8       1       1       0       8       1       1       0
       8       1       1       0       8       1       1       0       8       1
       1       0       8       1       1       0       8       1       1       0
       8       1       1       0       8       1       1       0       8       1
       1       0       8       1       1       0       8       1       1       0
       8       1       1       0       8       1       1       0       8       1
       1       0       8       1       1       0       8       1       1       0
       8       1       1       0       8       1       1       0       8       1
       1       0       8       1       1       0       8       1       1       0
       8       1       1       0       8       1       1       0       8       1
       1       0       8       1       1       0       8       1       1       0
       8       1       1       0       8       1       1       0       8       1
       1       0       8       1       1       0       8       1       1       0
       8       1       1       0       8       1       1       0       8       1
       1       0       8       1       1       0       8       1       1       0
       8       1       1       0       8       1       1       0       8       1
       1       0       8       1       1       0       8       1       1       0
       8       1       1       0       8       1       1       0       8       1
       1       0       8       1       1       0       8       1       1       0
       8       1       1       0       8       1       1       0       8       1
       1       0       8       1       1       0       8       1       1       0
       8       1       1       0       8       1       1       0       8       1
       1       0       8       1       1       0       8       1       1       0
       8       1       1       0       8       1       1       0       8       1
       1       0       8       1       1       0       8       1       1       0
       8       1       1       0       8       1       1       0       8       1
       1       0       8       1       1       0       8       1       1       0
       8       1       1       0       8       1       1       0       8       1
       1       0       8       1       1       0       8       1       1       0
       8       1       1       0       8       1       1       0       8       1
       1       0       8       1       1       0       8       1       1       0
       8       1       1       0       8       1       1       0       8       1
       1       0       8       1       1       0       8       1       1       0
       8       1       1       0       8       1       1       0       8       1
       1       0       8       1       1       0       8       1       1       0
       8       1       1       0       8       1       1       0       8       1
       1       0       8       1       1       0       8       1       1       0
       8       1       1       0       8       1       1       0       8       1
       1       0       8       1       1       0       8       1       1       0
       8       1       1       0       8       1       1       0       8       1
       1       0       8       1       1       0
%FLAG MASS
%FORMAT(5E16.8)
  7.96200000E+00  3.02400000E+00  3.02400000E+00  3.02400000E+00  9.99400000E+00
  3.02400000E+00  7.97800000E+00  3.02400000E+00  3.02400000E+00  1.39840000E+01
  3.02400000E+00  1.20100000E+01  1.60000000E+01  1.19940000E+01  3.02400000E+00
  9.99400000E+00  3.02400000E+00  7.97800000E+00  3.02400000E+00  3.02400000E+00
  9.99400000E+00  3.02400000E+00  5.96200000E+00  3.02400000E+00  3.02400000E+00
  3.02400000E+00  5.96200000E+00  3.02400000E+00  3.02400000E+00  3.02400000E+00
  1.20100000E+01  1.60000000E+01  1.19940000E+01  3.02400000E+00  9.99400000E+00
  3.02400000E+00  5.96200000E+00  3.02400000E+00  3.02400000E+00  3.02400000E+00
  1.20100000E+01  1.60000000E+01  1.19940000E+01  3.02400000E+00  9.99400000E+00
  3.02400000E+00  7.97800000E+00  3.02400000E+00  3.02400000E+00  1.20100000E+01
  1.40100000E+01  9.99400000E+00  3.02400000E+00  1.19940000E+01  3.02400000E+00
  9.99400000E+00  3.02400000E+00  1.20100000E+01  1.60000000E+01  1.19940000E+01
  3.02400000E+00  9.99400000E+00  3.02400000E+00  7.97800000E+00  3.02400000E+00
  3.02400000E+00  1.39840000E+01  3.02400000E+00  1.20100000E+01  1.60000000E+01
  1.60000000E+01  7.96200000E+00  3.02400000E+00  3.02400000E+00  3.02400000E+00
  9.99400000E+00  3.02400000E+00  7.97800000E+00  3.02400000E+00  3.02400000E+00
  9.99400000E+00  3.02400000E+00  5.96200000E+00  3.02400000E+00  3.02400000E+00
  3.02400000E+00  5.96200000E+00  3.02400000E+00  3.02400000E+00  3.02400000E+00
  1.20100000E+01  1.60000000E+01  1.19940000E+01  3.02400000E+00  9.99400000E+00
  3.02400000E+00  9.99400000E+00  3.02400000E+00  5.96200000E+00  3.02400000E+00
  3.02400000E+00  3.02400000E+00  5.96200000E+00  3.02400000E+00  3.02400000E+00
  3.02400000E+00  1.20100000E+01  1.60000000E+01  1.19940000E+01  3.02400000E+00
  9.99400000E+00  3.02400000E+00  9.99400000E+00  3.02400000E+00  5.96200000E+00
  3.02400000E+00  3.02400000E+00  3.02400000E+00  1.39840000E+01  3.02400000E+00
  1.20100000E+01  1.60000000E+01  1.19940000E+01  3.02400000E+00  9.99400000E+00
  3.02400000E+00  7.97800000E+00  3.02400000E+00  3.02400000E+00  7.97800000E+00
  3.02400000E+00  3.02400000E+00  7.97800000E+00  3.02400000E+00  3.02400000E+00
  7.97800000E+00  3.02400000E+00  3.02400000E+00  7.96200000E+00  3.02400000E+00
  3.02400000E+00  3.02400000E+00  1.20100000E+01  1.60000000E+01  1.19940000E+01
  3.02400000E+00  9.99400000E+00  3.02400000E+00  7.97800000E+00  3.02400000E+00
  3.02400000E+00  9.99400000E+00  3.02400000E+00  5.96200000E+00  3.02400000E+00
  3.02400000E+00  3.02400000E+00  5.96200000E+00  3.02400000E+00  3.02400000E+00
  3.02400000E+00  1.20100000E+01  1.60000000E+01  1.60000000E+01  1.20100000E+01
  3.20600000E+01  1.20100000E+01  1.20100000E+01  1.20100000E+01  9.99400000E+00
  9.99400000E+00  7.97800000E+00  7.97800000E+00  3.20600000E+01  1.60000000E+01
  1.60000000E+01  5.96200000E+00  1.19940000E+01  1.20100000E+01  1.60000000E+01
  1.19940000E+01  3.02400000E+00  3.02400000E+00  1.20100000E+01  9.99400000E+00
  9.99400000E+00  9.99400000E+00  1.20100000E+01  9.99400000E+00  7.99000000E+01
  3.02400000E+00  3.02400000E+00  3.02400000E+00  3.02400000E+00  3.02400000E+00
  3.02400000E+00  3.02400000E+00  3.02400000E+00  3.02400000E+00  3.02400000E+00
  3.02400000E+00  3.02400000E+00  3.02400000E+00  3.54500000E+01  2.29900000E+01
  2.29900000E+01  2.29900000E+01  2.29900000E+01  2.29900000E+01  2.29900000E+01
  2.29900000E+01  3.54500000E+01  3.54500000E+01  3.54500000E+01  3.54500000E+01
  3.54500000E+01  3.54500000E+01  3.54500000E+01  1.60000000E+01  1.00800000E+00
  1.00800000E+00  0.00000000E+00  1.60000000E+01  1.00800000E+00  1.00800000E+00
  0.00000000E+00  1.60000000E+01  1.00800000E+00  1.00800000E+00  0.00000000E+00
  1.60000000E+01  1.00800000E+00  1.00800000E+00  0.00000000E+00  1.60000000E+01
  1.00800000E+00  1.00800000E+00  0.00000000E+00  1.60000000E+01  1.00800000E+00
  1.00800000E+00  0.00000000E+00  1.60000000E+01  1.00800000E+00  1.00800000E+00
  0.00000000E+00  1.60000000E+01  1.00800000E+00  1.00800000E+00  0.00000000E+00
  1.60000000E+01  1.00800000E+00  1.00800000E+00  0.00000000E+00  1.60000000E+01
  1.00800000E+00  1.00800000E+00  0.00000000E+00  1.60000000E+01  1.00800000E+00
  1.00800000E+00  0.00000000E+00  1.60000000E+01  1.00800000E+00  1.00800000E+00
  0.00000000E+00  1.60000000E+01  1.00800000E+00  1.00800000E+00  0.00000000E+00
  1.60000000E+01  1.00800000E+00  1.00800000E+00  0.00000000E+00  1.60000000E+01
  1.00800000E+00  1.00800000E+00  0.00000000E+00  1.60000000E+01  1.00800000E+00
  1.00800000E+00  0.00000000E+00  1.60000000E+01  1.00800000E+00  1.00800000E+00
  0.00000000E+00  1.60000000E+01  1.00800000E+00  1.00800000E+00  0.00000000E+00
  1.60000000E+01  1.00800000E+00  1.00800000E+00  0.00000000E+00  1.60000000E+01
  1.00800000E+00  1.00800000E+00  0.00000000E+00  1.60000000E+01  1.00800000E+00
  1.00800000E+00  0.00000000E+00  1.60000000E+01  1.00800000E+00  1.00800000E+00
  0.00000000E+00  1.60000000E+01  1.00800000E+00  1.00800000E+00  0.00000000E+00
  1.60000000E+01  1.00800000E+00  1.00800000E+00  0.00000000E+00  1.60000000E+01
  1.00800000E+00  1.00800000E+00  0.00000000E+00  1.60000000E+01  1.00800000E+00
  1.00800000E+00  0.00000000E+00  1.60000000E+01  1.00800000E+00  1.00800000E+00
  0.00000000E+00  1.60000000E+01  1.00800000E+00  1.00800000E+00  0.00000000E+00
  1.60000000E+01  1.00800000E+00  1.00800000E+00  0.00000000E+00  1.60000000E+01
  1.00800000E+00  1.00800000E+00  0.00000000E+00  1.60000000E+01  1.00800000E+00
  1.00800000E+00  0.00000000E+00  1.60000000E+01  1.00800000E+00  1.00800000E+00
  0.00000000E+00  1.60000000E+01  1.00800000E+00  1.00800000E+00  0.00000000E+00
  1.60000000E+01  1.00800000E+00  1.00800000E+00  0.00000000E+00  1.60000000E+01
  1.00800000E+00  1.00800000E+00  0.00000000E+00  1.60000000E+01  1.00800000E+00
  1.00800000E+00  0.00000000E+00  1.60000000E+01  1.00800000E+00  1.00800000E+00
  0.00000000E+00  1.60000000E+01  1.00800000E+00  1.00800000E+00  0.00000000E+00
  1.60000000E+01  1.00800000E+00  1.00800000E+00  0.00000000E+00  1.60000000E+01
  1.00800000E+00  1.00800000E+00  0.00000000E+00  1.60000000E+01  1.00800000E+00
  1.00800000E+00  0.00000000E+00  1.60000000E+01  1.00800000E+00  1.00800000E+00
  0.00000000E+00  1.60000000E+01  1.00800000E+00  1.00800000E+00  0.00000000E+00
  1.60000000E+01  1.00800000E+00  1.00800000E+00  0.00000000E+00  1.60000000E+01
  1.00800000E+00  1.00800000E+00  0.00000000E+00  1.60000000E+01  1.00800000E+00
  1.00800000E+00  0.00000000E+00  1.60000000E+01  1.00800000E+00  1.00800000E+00
  0.00000000E+00  1.60000000E+01  1.00800000E+00  1.00800000E+00  0.00000000E+00
  1.60000000E+01  1.00800000E+00  1.00800000E+00  0.00000000E+00  1.60000000E+01
  1.00800000E+00  1.00800000E+00  0.00000000E+00  1.60000000E+01  1.00800000E+00
  1.00800000E+00  0.00000000E+00  1.60000000E+01  1.00800000E+00  1.00800000E+00
  0.00000000E+00  1.60000000E+01  1.00800000E+00  1.00800000E+00  0.00000000E+00
  1.60000000E+01  1.00800000E+00  1.00800000E+00  0.00000000E+00  1.60000000E+01
  1.00800000E+00  1.00800000E+00  0.00000000E+00  1.60000000E+01  1.00800000E+00
  1.00800000E+00  0.00000000E+00  1.60000000E+01  1.00800000E+00  1.00800000E+00
  0.00000000E+00  1.60000000E+01  1.00800000E+00  1.00800000E+00  0.00000000E+00
  1.60000000E+01  1.00800000E+00  1.00800000E+00  0.00000000E+00  1.60000000E+01
  1.00800000E+00  1.00800000E+00  0.00000000E+00  1.60000000E+01  1.00800000E+00
  1.00800000E+00  0.00000000E+00  1.60000000E+01  1.00800000E+00  1.00800000E+00
  0.00000000E+00  1.60000000E+01  1.00800000E+00  1.00800000E+00  0.00000000E+00
  1.60000000E+01  1.00800000E+00  1.00800000E+00  0.00000000E+00  1.60000000E+01
  1.00800000E+00  1.00800000E+00  0.00000000E+00  1.60000000E+01  1.00800000E+00
  1.00800000E+00  0.00000000E+00  1.60000000E+01  1.00800000E+00  1.00800000E+00
  0.00000000E+00  1.60000000E+01  1.00800000E+00  1.00800000E+00  0.00000000E+00
  1.60000000E+01  1.00800000E+00  1.00800000E+00  0.00000000E+00  1.60000000E+01
  1.00800000E+00  1.00800000E+00  0.00000000E+00  1.60000000E+01  1.00800000E+00
  1.00800000E+00  0.00000000E+00  1.60000000E+01  1.00800000E+00  1.00800000E+00
  0.00000000E+00  1.60000000E+01  1.00800000E+00  1.00800000E+00  0.00000000E+00
  1.60000000E+01  1.00800000E+00  1.00800000E+00  0.00000000E+00  1.60000000E+01
  1.00800000E+00  1.00800000E+00  0.00000000E+00  1.60000000E+01  1.00800000E+00
  1.00800000E+00  0.00000000E+00  1.60000000E+01  1.00800000E+00  1.00800000E+00
  0.00000000E+00  1.60000000E+01  1.00800000E+00  1.00800000E+00  0.00000000E+00
  1.60000000E+01  1.00800000E+00  1.00800000E+00  0.00000000E+00  1.60000000E+01
  1.00800000E+00  1.00800000E+00  0.00000000E+00  1.60000000E+01  1.00800000E+00
  1.00800000E+00  0.00000000E+00  1.60000000E+01  1.00800000E+00  1.00800000E+00
  0.00000000E+00  1.60000000E+01  1.00800000E+00  1.00800000E+00  0.00000000E+00
  1.60000000E+01  1.00800000E+00  1.00800000E+00  0.00000000E+00  1.60000000E+01
  1.00800000E+00  1.00800000E+00  0.00000000E+00  1.60000000E+01  1.00800000E+00
  1.00800000E+00  0.00000000E+00  1.60000000E+01  1.00800000E+00  1.00800000E+00
  0.00000000E+00  1.60000000E+01  1.00800000E+00  1.00800000E+00  0.00000000E+00
  1.60000000E+01  1.00800000E+00  1.00800000E+00  0.00000000E+00  1.60000000E+01
  1.00800000E+00  1.00800000E+00  0.00000000E+00  1.60000000E+01  1.00800000E+00
  1.00800000E+00  0.00000000E+00  1.60000000E+01  1.00800000E+00  1.00800000E+00
  0.00000000E+00  1.60000000E+01  1.00800000E+00  1.00800000E+00  0.00000000E+00
  1.60000000E+01  1.00800000E+00  1.00800000E+00  0.00000000E+00  1.60000000E+01
  1.00800000E+00  1.00800000E+00  0.00000000E+00  1.60000000E+01  1.00800000E+00
  1.00800000E+00  0.00000000E+00  1.60000000E+01  1.00800000E+00  1.00800000E+00
  0.00000000E+00  1.60000000E+01  1.00800000E+00  1.00800000E+00  0.00000000E+00
  1.60000000E+01  1.00800000E+00  1.00800000E+00  0.00000000E+00  1.60000000E+01
  1.00800000E+00  1.00800000E+00  0.00000000E+00  1.60000000E+01  1.00800000E+00
  1.00800000E+00  0.00000000E+00  1.60000000E+01  1.00800000E+00  1.00800000E+00
  0.00000000E+00  1.60000000E+01  1.00800000E+00  1.00800000E+00  0.00000000E+00
  1.60000000E+01  1.00800000E+00  1.00800000E+00  0.00000000E+00  1.60000000E+01
  1.00800000E+00  1.00800000E+00  0.00000000E+00  1.60000000E+01  1.00800000E+00
  1.00800000E+00  0.00000000E+00  1.60000000E+01  1.00800000E+00  1.00800000E+00
  0.00000000E+00  1.60000000E+01  1.00800000E+00  1.00800000E+00  0.00000000E+00
  1.60000000E+01  1.00800000E+00  1.00800000E+00  0.00000000E+00  1.60000000E+01
  1.00800000E+00  1.00800000E+00  0.00000000E+00  1.60000000E+01  1.00800000E+00
  1.00800000E+00  0.00000000E+00  1.60000000E+01  1.00800000E+00  1.00800000E+00
  0.00000000E+00  1.60000000E+01  1.00800000E+00  1.00800000E+00  0.00000000E+00
  1.60000000E+01  1.00800000E+00  1.00800000E+00  0.00000000E+00  1.60000000E+01
  1.00800000E+00  1.00800000E+00  0.00000000E+00  1.60000000E+01  1.00800000E+00
  1.00800000E+00  0.00000000E+00  1.60000000E+01  1.00800000E+00  1.00800000E+00
  0.00000000E+00  1.60000000E+01  1.00800000E+00  1.00800000E+00  0.00000000E+00
  1.60000000E+01  1.00800000E+00  1.00800000E+00  0.00000000E+00  1.60000000E+01
  1.00800000E+00  1.00800000E+00  0.00000000E+00  1.60000000E+01  1.00800000E+00
  1.00800000E+00  0.00000000E+00  1.60000000E+01  1.00800000E+00  1.00800000E+00
  0.00000000E+00  1.60000000E+01  1.00800000E+00  1.00800000E+00  0.00000000E+00
  1.60000000E+01  1.00800000E+00  1.00800000E+00  0.00000000E+00  1.60000000E+01
  1.00800000E+00  1.00800000E+00  0.00000000E+00  1.60000000E+01  1.00800000E+00
  1.00800000E+00  0.00000000E+00  1.60000000E+01  1.00800000E+00  1.00800000E+00
  0.00000000E+00  1.60000000E+01  1.00800000E+00  1.00800000E+00  0.00000000E+00
  1.60000000E+01  1.00800000E+00  1.00800000E+00  0.00000000E+00  1.60000000E+01
  1.00800000E+00  1.00800000E+00  0.00000000E+00  1.60000000E+01  1.00800000E+00
  1.00800000E+00  0.00000000E+00  1.60000000E+01  1.00800000E+00  1.00800000E+00
  0.00000000E+00  1.60000000E+01  1.00800000E+00  1.00800000E+00  0.00000000E+00
  1.60000000E+01  1.00800000E+00  1.00800000E+00  0.00000000E+00  1.60000000E+01
  1.00800000E+00  1.00800000E+00  0.00000000E+00  1.60000000E+01  1.00800000E+00
  1.00800000E+00  0.00000000E+00  1.60000000E+01  1.00800000E+00  1.00800000E+00
  0.00000000E+00  1.60000000E+01  1.00800000E+00  1.00800000E+00  0.00000000E+00
  1.60000000E+01  1.00800000E+00  1.00800000E+00  0.00000000E+00  1.60000000E+01
  1.00800000E+00  1.00800000E+00  0.00000000E+00  1.60000000E+01  1.00800000E+00
  1.00800000E+00  0.00000000E+00  1.60000000E+01  1.00800000E+00  1.00800000E+00
  0.00000000E+00  1.60000000E+01  1.00800000E+00  1.00800000E+00  0.00000000E+00
  1.60000000E+01  1.00800000E+00  1.00800000E+00  0.00000000E+00  1.60000000E+01
  1.00800000E+00  1.00800000E+00  0.00000000E+00  1.60000000E+01  1.00800000E+00
  1.00800000E+00  0.00000000E+00  1.60000000E+01  1.00800000E+00  1.00800000E+00
  0.00000000E+00  1.60000000E+01  1.00800000E+00  1.00800000E+00  0.00000000E+00
  1.60000000E+01  1.00800000E+00  1.00800000E+00  0.00000000E+00  1.60000000E+01
  1.00800000E+00  1.00800000E+00  0.00000000E+00  1.60000000E+01  1.00800000E+00
  1.00800000E+00  0.00000000E+00  1.60000000E+01  1.00800000E+00  1.00800000E+00
  0.00000000E+00  1.60000000E+01  1.00800000E+00  1.00800000E+00  0.00000000E+00
  1.60000000E+01  1.00800000E+00  1.00800000E+00  0.00000000E+00  1.60000000E+01
  1.00800000E+00  1.00800000E+00  0.00000000E+00  1.60000000E+01  1.00800000E+00
  1.00800000E+00  0.00000000E+00  1.60000000E+01  1.00800000E+00  1.00800000E+00
  0.00000000E+00  1.60000000E+01  1.00800000E+00  1.00800000E+00  0.00000000E+00
  1.60000000E+01  1.00800000E+00  1.00800000E+00  0.00000000E+00  1.60000000E+01
  1.00800000E+00  1.00800000E+00  0.00000000E+00  1.60000000E+01  1.00800000E+00
  1.00800000E+00  0.00000000E+00  1.60000000E+01  1.00800000E+00  1.00800000E+00
  0.00000000E+00  1.60000000E+01  1.00800000E+00  1.00800000E+00  0.00000000E+00
  1.60000000E+01  1.00800000E+00  1.00800000E+00  0.00000000E+00  1.60000000E+01
  1.00800000E+00  1.00800000E+00  0.00000000E+00  1.60000000E+01  1.00800000E+00
  1.00800000E+00  0.00000000E+00  1.60000000E+01  1.00800000E+00  1.00800000E+00
  0.00000000E+00  1.60000000E+01  1.00800000E+00  1.00800000E+00  0.00000000E+00
  1.60000000E+01  1.00800000E+00  1.00800000E+00  0.00000000E+00  1.60000000E+01
  1.00800000E+00  1.00800000E+00  0.00000000E+00  1.60000000E+01  1.00800000E+00
  1.00800000E+00  0.00000000E+00  1.60000000E+01  1.00800000E+00  1.00800000E+00
  0.00000000E+00  1.60000000E+01  1.00800000E+00  1.00800000E+00  0.00000000E+00
  1.60000000E+01  1.00800000E+00  1.00800000E+00  0.00000000E+00  1.60000000E+01
  1.00800000E+00  1.00800000E+00  0.00000000E+00  1.60000000E+01  1.00800000E+00
  1.00800000E+00  0.00000000E+00  1.60000000E+01  1.00800000E+00  1.00800000E+00
  0.00000000E+00  1.60000000E+01  1.00800000E+00  1.00800000E+00  0.00000000E+00
  1.60000000E+01  1.00800000E+00  1.00800000E+00  0.00000000E+00  1.60000000E+01
  1.00800000E+00  1.00800000E+00  0.00000000E+00  1.60000000E+01  1.00800000E+00
  1.00800000E+00  0.00000000E+00  1.60000000E+01  1.00800000E+00  1.00800000E+00
  0.00000000E+00  1.60000000E+01  1.00800000E+00  1.00800000E+00  0.00000000E+00
  1.60000000E+01  1.00800000E+00  1.00800000E+00  0.00000000E+00  1.60000000E+01
  1.00800000E+00  1.00800000E+00  0.00000000E+00  1.60000000E+01  1.00800000E+00
  1.00800000E+00  0.00000000E+00  1.60000000E+01  1.00800000E+00  1.00800000E+00
  0.00000000E+00  1.60000000E+01  1.00800000E+00  1.00800000E+00  0.00000000E+00
  1.60000000E+01  1.00800000E+00  1.00800000E+00  0.00000000E+00  1.60000000E+01
  1.00800000E+00  1.00800000E+00  0.00000000E+00  1.60000000E+01  1.00800000E+00
  1.00800000E+00  0.00000000E+00  1.60000000E+01  1.00800000E+00  1.00800000E+00
  0.00000000E+00  1.60000000E+01  1.00800000E+00  1.00800000E+00  0.00000000E+00
  1.60000000E+01  1.00800000E+00  1.00800000E+00  0.00000000E+00  1.60000000E+01
  1.00800000E+00  1.00800000E+00  0.00000000E+00  1.60000000E+01  1.00800000E+00
  1.00800000E+00  0.00000000E+00  1.60000000E+01  1.00800000E+00  1.00800000E+00
  0.00000000E+00  1.60000000E+01  1.00800000E+00  1.00800000E+00  0.00000000E+00
  1.60000000E+01  1.00800000E+00  1.00800000E+00  0.00000000E+00  1.60000000E+01
  1.00800000E+00  1.00800000E+00  0.00000000E+00  1.60000000E+01  1.00800000E+00
  1.00800000E+00  0.00000000E+00  1.60000000E+01  1.00800000E+00  1.00800000E+00
  0.00000000E+00  1.60000000E+01  1.00800000E+00  1.00800000E+00  0.00000000E+00
  1.60000000E+01  1.00800000E+00  1.00800000E+00  0.00000000E+00  1.60000000E+01
  1.00800000E+00  1.00800000E+00  0.00000000E+00  1.60000000E+01  1.00800000E+00
  1.00800000E+00  0.00000000E+00  1.60000000E+01  1.00800000E+00  1.00800000E+00
  0.00000000E+00  1.60000000E+01  1.00800000E+00  1.00800000E+00  0.00000000E+00
  1.60000000E+01  1.00800000E+00  1.00800000E+00  0.00000000E+00  1.60000000E+01
  1.00800000E+00  1.00800000E+00  0.00000000E+00  1.60000000E+01  1.00800000E+00
  1.00800000E+00  0.00000000E+00  1.60000000E+01  1.00800000E+00  1.00800000E+00
  0.00000000E+00  1.60000000E+01  1.00800000E+00  1.00800000E+00  0.00000000E+00
  1.60000000E+01  1.00800000E+00  1.00800000E+00  0.00000000E+00  1.60000000E+01
  1.00800000E+00  1.00800000E+00  0.00000000E+00  1.60000000E+01  1.00800000E+00
  1.00800000E+00  0.00000000E+00  1.60000000E+01  1.00800000E+00  1.00800000E+00
  0.00000000E+00  1.60000000E+01  1.00800000E+00  1.00800000E+00  0.00000000E+00
  1.60000000E+01  1.00800000E+00  1.00800000E+00  0.00000000E+00  1.60000000E+01
  1.00800000E+00  1.00800000E+00  0.00000000E+00  1.60000000E+01  1.00800000E+00
  1.00800000E+00  0.00000000E+00  1.60000000E+01  1.00800000E+00  1.00800000E+00
  0.00000000E+00  1.60000000E+01  1.00800000E+00  1.00800000E+00  0.00000000E+00
  1.60000000E+01  1.00800000E+00  1.00800000E+00  0.00000000E+00  1.60000000E+01
  1.00800000E+00  1.00800000E+00  0.00000000E+00  1.60000000E+01  1.00800000E+00
  1.00800000E+00  0.00000000E+00  1.60000000E+01  1.00800000E+00  1.00800000E+00
  0.00000000E+00  1.60000000E+01  1.00800000E+00  1.00800000E+00  0.00000000E+00
  1.60000000E+01  1.00800000E+00  1.00800000E+00  0.00000000E+00  1.60000000E+01
  1.00800000E+00  1.00800000E+00  0.00000000E+00  1.60000000E+01  1.00800000E+00
  1.00800000E+00  0.00000000E+00  1.60000000E+01  1.00800000E+00  1.00800000E+00
  0.00000000E+00  1.60000000E+01  1.00800000E+00  1.00800000E+00  0.00000000E+00
  1.60000000E+01  1.00800000E+00  1.00800000E+00  0.00000000E+00  1.60000000E+01
  1.00800000E+00  1.00800000E+00  0.00000000E+00  1.60000000E+01  1.00800000E+00
  1.00800000E+00  0.00000000E+00  1.60000000E+01  1.00800000E+00  1.00800000E+00
  0.00000000E+00  1.60000000E+01  1.00800000E+00  1.00800000E+00  0.00000000E+00
  1.60000000E+01  1.00800000E+00  1.00800000E+00  0.00000000E+00  1.60000000E+01
  1.00800000E+00  1.00800000E+00  0.00000000E+00  1.60000000E+01  1.00800000E+00
  1.00800000E+00  0.00000000E+00  1.60000000E+01  1.00800000E+00  1.00800000E+00
  0.00000000E+00  1.60000000E+01  1.00800000E+00  1.00800000E+00  0.00000000E+00
  1.60000000E+01  1.00800000E+00  1.00800000E+00  0.00000000E+00  1.60000000E+01
  1.00800000E+00  1.00800000E+00  0.00000000E+00  1.60000000E+01  1.00800000E+00
  1.00800000E+00  0.00000000E+00  1.60000000E+01  1.00800000E+00  1.00800000E+00
  0.00000000E+00  1.60000000E+01  1.00800000E+00  1.00800000E+00  0.00000000E+00
  1.60000000E+01  1.00800000E+00  1.00800000E+00  0.00000000E+00  1.60000000E+01
  1.00800000E+00  1.00800000E+00  0.00000000E+00  1.60000000E+01  1.00800000E+00
  1.00800000E+00  0.00000000E+00  1.60000000E+01  1.00800000E+00  1.00800000E+00
  0.00000000E+00  1.60000000E+01  1.00800000E+00  1.00800000E+00  0.00000000E+00
  1.60000000E+01  1.00800000E+00  1.00800000E+00  0.00000000E+00  1.60000000E+01
  1.00800000E+00  1.00800000E+00  0.00000000E+00  1.60000000E+01  1.00800000E+00
  1.00800000E+00  0.00000000E+00  1.60000000E+01  1.00800000E+00  1.00800000E+00
  0.00000000E+00  1.60000000E+01  1.00800000E+00  1.00800000E+00  0.00000000E+00
  1.60000000E+01  1.00800000E+00  1.00800000E+00  0.00000000E+00  1.60000000E+01
  1.00800000E+00  1.00800000E+00  0.00000000E+00  1.60000000E+01  1.00800000E+00
  1.00800000E+00  0.00000000E+00  1.60000000E+01  1.00800000E+00  1.00800000E+00
  0.00000000E+00  1.60000000E+01  1.00800000E+00  1.00800000E+00  0.00000000E+00
  1.60000000E+01  1.00800000E+00  1.00800000E+00  0.00000000E+00  1.60000000E+01
  1.00800000E+00  1.00800000E+00  0.00000000E+00  1.60000000E+01  1.00800000E+00
  1.00800000E+00  0.00000000E+00  1.60000000E+01  1.00800000E+00  1.00800000E+00
  0.00000000E+00  1.60000000E+01  1.00800000E+00  1.00800000E+00  0.00000000E+00
  1.60000000E+01  1.00800000E+00  1.00800000E+00  0.00000000E+00  1.60000000E+01
  1.00800000E+00  1.00800000E+00  0.00000000E+00  1.60000000E+01  1.00800000E+00
  1.00800000E+00  0.00000000E+00  1.60000000E+01  1.00800000E+00  1.00800000E+00
  0.00000000E+00  1.60000000E+01  1.00800000E+00  1.00800000E+00  0.00000000E+00
  1.60000000E+01  1.00800000E+00  1.00800000E+00  0.00000000E+00  1.60000000E+01
  1.00800000E+00  1.00800000E+00  0.00000000E+00  1.60000000E+01  1.00800000E+00
  1.00800000E+00  0.00000000E+00  1.60000000E+01  1.00800000E+00  1.00800000E+00
  0.00000000E+00  1.60000000E+01  1.00800000E+00  1.00800000E+00  0.00000000E+00
  1.60000000E+01  1.00800000E+00  1.00800000E+00  0.00000000E+00  1.60000000E+01
  1.00800000E+00  1.00800000E+00  0.00000000E+00  1.60000000E+01  1.00800000E+00
  1.00800000E+00  0.00000000E+00  1.60000000E+01  1.00800000E+00  1.00800000E+00
  0.00000000E+00  1.60000000E+01  1.00800000E+00  1.00800000E+00  0.00000000E+00
  1.60000000E+01  1.00800000E+00  1.00800000E+00  0.00000000E+00  1.60000000E+01
  1.00800000E+00  1.00800000E+00  0.00000000E+00  1.60000000E+01  1.00800000E+00
  1.00800000E+00  0.00000000E+00  1.60000000E+01  1.00800000E+00  1.00800000E+00
  0.00000000E+00  1.60000000E+01  1.00800000E+00  1.00800000E+00  0.00000000E+00
  1.60000000E+01  1.00800000E+00  1.00800000E+00  0.00000000E+00  1.60000000E+01
  1.00800000E+00  1.00800000E+00  0.00000000E+00  1.60000000E+01  1.00800000E+00
  1.00800000E+00  0.00000000E+00  1.60000000E+01  1.00800000E+00  1.00800000E+00
  0.00000000E+00  1.60000000E+01  1.00800000E+00  1.00800000E+00  0.00000000E+00
  1.60000000E+01  1.00800000E+00  1.00800000E+00  0.00000000E+00  1.60000000E+01
  1.00800000E+00  1.00800000E+00  0.00000000E+00  1.60000000E+01  1.00800000E+00
  1.00800000E+00  0.00000000E+00  1.60000000E+01  1.00800000E+00  1.00800000E+00
  0.00000000E+00  1.60000000E+01  1.00800000E+00  1.00800000E+00  0.00000000E+00
  1.60000000E+01  1.00800000E+00  1.00800000E+00  0.00000000E+00  1.60000000E+01
  1.00800000E+00  1.00800000E+00  0.00000000E+00  1.60000000E+01  1.00800000E+00
  1.00800000E+00  0.00000000E+00  1.60000000E+01  1.00800000E+00  1.00800000E+00
  0.00000000E+00  1.60000000E+01  1.00800000E+00  1.00800000E+00  0.00000000E+00
  1.60000000E+01  1.00800000E+00  1.00800000E+00  0.00000000E+00  1.60000000E+01
  1.00800000E+00  1.00800000E+00  0.00000000E+00  1.60000000E+01  1.00800000E+00
  1.00800000E+00  0.00000000E+00  1.60000000E+01  1.00800000E+00  1.00800000E+00
  0.00000000E+00  1.60000000E+01  1.00800000E+00  1.00800000E+00  0.00000000E+00
  1.60000000E+01  1.00800000E+00  1.00800000E+00  0.00000000E+00  1.60000000E+01
  1.00800000E+00  1.00800000E+00  0.00000000E+00  1.60000000E+01  1.00800000E+00
  1.00800000E+00  0.00000000E+00  1.60000000E+01  1.00800000E+00  1.00800000E+00
  0.00000000E+00  1.60000000E+01  1.00800000E+00  1.00800000E+00  0.00000000E+00
  1.60000000E+01  1.00800000E+00  1.00800000E+00  0.00000000E+00  1.60000000E+01
  1.00800000E+00  1.00800000E+00  0.00000000E+00  1.60000000E+01  1.00800000E+00
  1.00800000E+00  0.00000000E+00  1.60000000E+01  1.00800000E+00  1.00800000E+00
  0.00000000E+00  1.60000000E+01  1.00800000E+00  1.00800000E+00  0.00000000E+00
  1.60000000E+01  1.00800000E+00  1.00800000E+00  0.00000000E+00  1.60000000E+01
  1.00800000E+00  1.00800000E+00  0.00000000E+00  1.60000000E+01  1.00800000E+00
  1.00800000E+00  0.00000000E+00  1.60000000E+01  1.00800000E+00  1.00800000E+00
  0.00000000E+00  1.60000000E+01  1.00800000E+00  1.00800000E+00  0.00000000E+00
  1.60000000E+01  1.00800000E+00  1.00800000E+00  0.00000000E+00  1.60000000E+01
  1.00800000E+00  1.00800000E+00  0.00000000E+00  1.60000000E+01  1.00800000E+00
  1.00800000E+00  0.00000000E+00  1.60000000E+01  1.00800000E+00  1.00800000E+00
  0.00000000E+00  1.60000000E+01  1.00800000E+00  1.00800000E+00  0.00000000E+00
  1.60000000E+01  1.00800000E+00  1.00800000E+00  0.00000000E+00  1.60000000E+01
  1.00800000E+00  1.00800000E+00  0.00000000E+00  1.60000000E+01  1.00800000E+00
  1.00800000E+00  0.00000000E+00  1.60000000E+01  1.00800000E+00  1.00800000E+00
  0.00000000E+00  1.60000000E+01  1.00800000E+00  1.00800000E+00  0.00000000E+00
  1.60000000E+01  1.00800000E+00  1.00800000E+00  0.00000000E+00  1.60000000E+01
  1.00800000E+00  1.00800000E+00  0.00000000E+00  1.60000000E+01  1.00800000E+00
  1.00800000E+00  0.00000000E+00  1.60000000E+01  1.00800000E+00  1.00800000E+00
  0.00000000E+00  1.60000000E+01  1.00800000E+00  1.00800000E+00  0.00000000E+00
  1.60000000E+01  1.00800000E+00  1.00800000E+00  0.00000000E+00  1.60000000E+01
  1.00800000E+00  1.00800000E+00  0.00000000E+00  1.60000000E+01  1.00800000E+00
  1.00800000E+00  0.00000000E+00  1.60000000E+01  1.00800000E+00  1.00800000E+00
  0.00000000E+00  1.60000000E+01  1.00800000E+00  1.00800000E+00  0.00000000E+00
  1.60000000E+01  1.00800000E+00  1.00800000E+00  0.00000000E+00  1.60000000E+01
  1.00800000E+00  1.00800000E+00  0.00000000E+00  1.60000000E+01  1.00800000E+00
  1.00800000E+00  0.00000000E+00  1.60000000E+01  1.00800000E+00  1.00800000E+00
  0.00000000E+00  1.60000000E+01  1.00800000E+00  1.00800000E+00  0.00000000E+00
  1.60000000E+01  1.00800000E+00  1.00800000E+00  0.00000000E+00  1.60000000E+01
  1.00800000E+00  1.00800000E+00  0.00000000E+00  1.60000000E+01  1.00800000E+00
  1.00800000E+00  0.00000000E+00  1.60000000E+01  1.00800000E+00  1.00800000E+00
  0.00000000E+00  1.60000000E+01  1.00800000E+00  1.00800000E+00  0.00000000E+00
  1.60000000E+01  1.00800000E+00  1.00800000E+00  0.00000000E+00  1.60000000E+01
  1.00800000E+00  1.00800000E+00  0.00000000E+00  1.60000000E+01  1.00800000E+00
  1.00800000E+00  0.00000000E+00  1.60000000E+01  1.00800000E+00  1.00800000E+00
  0.00000000E+00  1.60000000E+01  1.00800000E+00  1.00800000E+00  0.00000000E+00
  1.60000000E+01  1.00800000E+00  1.00800000E+00  0.00000000E+00  1.60000000E+01
  1.00800000E+00  1.00800000E+00  0.00000000E+00  1.60000000E+01  1.00800000E+00
  1.00800000E+00  0.00000000E+00  1.60000000E+01  1.00800000E+00  1.00800000E+00
  0.00000000E+00  1.60000000E+01  1.00800000E+00  1.00800000E+00  0.00000000E+00
  1.60000000E+01  1.00800000E+00  1.00800000E+00  0.00000000E+00  1.60000000E+01
  1.00800000E+00  1.00800000E+00  0.00000000E+00  1.60000000E+01  1.00800000E+00
  1.00800000E+00  0.00000000E+00  1.60000000E+01  1.00800000E+00  1.00800000E+00
  0.00000000E+00  1.60000000E+01  1.00800000E+00  1.00800000E+00  0.00000000E+00
  1.60000000E+01  1.00800000E+00  1.00800000E+00  0.00000000E+00  1.60000000E+01
  1.00800000E+00  1.00800000E+00  0.00000000E+00  1.60000000E+01  1.00800000E+00
  1.00800000E+00  0.00000000E+00  1.60000000E+01  1.00800000E+00  1.00800000E+00
  0.00000000E+00  1.60000000E+01  1.00800000E+00  1.00800000E+00  0.00000000E+00
  1.60000000E+01  1.00800000E+00  1.00800000E+00  0.00000000E+00  1.60000000E+01
  1.00800000E+00  1.00800000E+00  0.00000000E+00  1.60000000E+01  1.00800000E+00
  1.00800000E+00  0.00000000E+00  1.60000000E+01  1.00800000E+00  1.00800000E+00
  0.00000000E+00  1.60000000E+01  1.00800000E+00  1.00800000E+00  0.00000000E+00
  1.60000000E+01  1.00800000E+00  1.00800000E+00  0.00000000E+00  1.60000000E+01
  1.00800000E+00  1.00800000E+00  0.00000000E+00  1.60000000E+01  1.00800000E+00
  1.00800000E+00  0.00000000E+00  1.60000000E+01  1.00800000E+00  1.00800000E+00
  0.00000000E+00  1.60000000E+01  1.00800000E+00  1.00800000E+00  0.00000000E+00
  1.60000000E+01  1.00800000E+00  1.00800000E+00  0.00000000E+00  1.60000000E+01
  1.00800000E+00  1.00800000E+00  0.00000000E+00  1.60000000E+01  1.00800000E+00
  1.00800000E+00  0.00000000E+00  1.60000000E+01  1.00800000E+00  1.00800000E+00
  0.00000000E+00  1.60000000E+01  1.00800000E+00  1.00800000E+00  0.00000000E+00
  1.60000000E+01  1.00800000E+00  1.00800000E+00  0.00000000E+00  1.60000000E+01
  1.00800000E+00  1.00800000E+00  0.00000000E+00  1.60000000E+01  1.00800000E+00
  1.00800000E+00  0.00000000E+00  1.60000000E+01  1.00800000E+00  1.00800000E+00
  0.00000000E+00  1.60000000E+01  1.00800000E+00  1.00800000E+00  0.00000000E+00
  1.60000000E+01  1.00800000E+00  1.00800000E+00  0.00000000E+00  1.60000000E+01
  1.00800000E+00  1.00800000E+00  0.00000000E+00  1.60000000E+01  1.00800000E+00
  1.00800000E+00  0.00000000E+00  1.60000000E+01  1.00800000E+00  1.00800000E+00
  0.00000000E+00  1.60000000E+01  1.00800000E+00  1.00800000E+00  0.00000000E+00
  1.60000000E+01  1.00800000E+00  1.00800000E+00  0.00000000E+00  1.60000000E+01
  1.00800000E+00  1.00800000E+00  0.00000000E+00  1.60000000E+01  1.00800000E+00
  1.00800000E+00  0.00000000E+00  1.60000000E+01  1.00800000E+00  1.00800000E+00
  0.00000000E+00  1.60000000E+01  1.00800000E+00  1.00800000E+00  0.00000000E+00
  1.60000000E+01  1.00800000E+00  1.00800000E+00  0.00000000E+00  1.60000000E+01
  1.00800000E+00  1.00800000E+00  0.00000000E+00  1.60000000E+01  1.00800000E+00
  1.00800000E+00  0.00000000E+00  1.60000000E+01  1.00800000E+00  1.00800000E+00
  0.00000000E+00  1.60000000E+01  1.00800000E+00  1.00800000E+00  0.00000000E+00
  1.60000000E+01  1.00800000E+00  1.00800000E+00  0.00000000E+00  1.60000000E+01
  1.00800000E+00  1.00800000E+00  0.00000000E+00  1.60000000E+01  1.00800000E+00
  1.00800000E+00  0.00000000E+00  1.60000000E+01  1.00800000E+00  1.00800000E+00
  0.00000000E+00  1.60000000E+01  1.00800000E+00  1.00800000E+00  0.00000000E+00
  1.60000000E+01  1.00800000E+00  1.00800000E+00  0.00000000E+00  1.60000000E+01
  1.00800000E+00  1.00800000E+00  0.00000000E+00  1.60000000E+01  1.00800000E+00
  1.00800000E+00  0.00000000E+00  1.60000000E+01  1.00800000E+00  1.00800000E+00
  0.00000000E+00  1.60000000E+01  1.00800000E+00  1.00800000E+00  0.00000000E+00
  1.60000000E+01  1.00800000E+00  1.00800000E+00  0.00000000E+00  1.60000000E+01
  1.00800000E+00  1.00800000E+00  0.00000000E+00  1.60000000E+01  1.00800000E+00
  1.00800000E+00  0.00000000E+00  1.60000000E+01  1.00800000E+00  1.00800000E+00
  0.00000000E+00  1.60000000E+01  1.00800000E+00  1.00800000E+00  0.00000000E+00
  1.60000000E+01  1.00800000E+00  1.00800000E+00  0.00000000E+00  1.60000000E+01
  1.00800000E+00  1.00800000E+00  0.00000000E+00  1.60000000E+01  1.00800000E+00
  1.00800000E+00  0.00000000E+00  1.60000000E+01  1.00800000E+00  1.00800000E+00
  0.00000000E+00  1.60000000E+01  1.00800000E+00  1.00800000E+00  0.00000000E+00
  1.60000000E+01  1.00800000E+00  1.00800000E+00  0.00000000E+00  1.60000000E+01
  1.00800000E+00  1.00800000E+00  0.00000000E+00  1.60000000E+01  1.00800000E+00
  1.00800000E+00  0.00000000E+00  1.60000000E+01  1.00800000E+00  1.00800000E+00
  0.00000000E+00  1.60000000E+01  1.00800000E+00  1.00800000E+00  0.00000000E+00
  1.60000000E+01  1.00800000E+00  1.00800000E+00  0.00000000E+00  1.60000000E+01
  1.00800000E+00  1.00800000E+00  0.00000000E+00  1.60000000E+01  1.00800000E+00
  1.00800000E+00  0.00000000E+00  1.60000000E+01  1.00800000E+00  1.00800000E+00
  0.00000000E+00  1.60000000E+01  1.00800000E+00  1.00800000E+00  0.00000000E+00
  1.60000000E+01  1.00800000E+00  1.00800000E+00  0.00000000E+00  1.60000000E+01
  1.00800000E+00  1.00800000E+00  0.00000000E+00  1.60000000E+01  1.00800000E+00
  1.00800000E+00  0.00000000E+00  1.60000000E+01  1.00800000E+00  1.00800000E+00
  0.00000000E+00  1.60000000E+01  1.00800000E+00  1.00800000E+00  0.00000000E+00
  1.60000000E+01  1.00800000E+00  1.00800000E+00  0.00000000E+00  1.60000000E+01
  1.00800000E+00  1.00800000E+00  0.00000000E+00  1.60000000E+01  1.00800000E+00
  1.00800000E+00  0.00000000E+00  1.60000000E+01  1.00800000E+00  1.00800000E+00
  0.00000000E+00  1.60000000E+01  1.00800000E+00  1.00800000E+00  0.00000000E+00
  1.60000000E+01  1.00800000E+00  1.00800000E+00  0.00000000E+00  1.60000000E+01
  1.00800000E+00  1.00800000E+00  0.00000000E+00  1.60000000E+01  1.00800000E+00
  1.00800000E+00  0.00000000E+00  1.60000000E+01  1.00800000E+00  1.00800000E+00
  0.00000000E+00  1.60000000E+01  1.00800000E+00  1.00800000E+00  0.00000000E+00
  1.60000000E+01  1.00800000E+00  1.00800000E+00  0.00000000E+00  1.60000000E+01
  1.00800000E+00  1.00800000E+00  0.00000000E+00  1.60000000E+01  1.00800000E+00
  1.00800000E+00  0.00000000E+00  1.60000000E+01  1.00800000E+00  1.00800000E+00
  0.00000000E+00  1.60000000E+01  1.00800000E+00  1.00800000E+00  0.00000000E+00
  1.60000000E+01  1.00800000E+00  1.00800000E+00  0.00000000E+00  1.60000000E+01
  1.00800000E+00  1.00800000E+00  0.00000000E+00  1.60000000E+01  1.00800000E+00
  1.00800000E+00  0.00000000E+00  1.60000000E+01  1.00800000E+00  1.00800000E+00
  0.00000000E+00  1.60000000E+01  1.00800000E+00  1.00800000E+00  0.00000000E+00
  1.60000000E+01  1.00800000E+00  1.00800000E+00  0.00000000E+00  1.60000000E+01
  1.00800000E+00  1.00800000E+00  0.00000000E+00  1.60000000E+01  1.00800000E+00
  1.00800000E+00  0.00000000E+00  1.60000000E+01  1.00800000E+00  1.00800000E+00
  0.00000000E+00  1.60000000E+01  1.00800000E+00  1.00800000E+00  0.00000000E+00
  1.60000000E+01  1.00800000E+00  1.00800000E+00  0.00000000E+00  1.60000000E+01
  1.00800000E+00  1.00800000E+00  0.00000000E+00  1.60000000E+01  1.00800000E+00
  1.00800000E+00  0.00000000E+00  1.60000000E+01  1.00800000E+00  1.00800000E+00
  0.00000000E+00  1.60000000E+01  1.00800000E+00  1.00800000E+00  0.00000000E+00
  1.60000000E+01  1.00800000E+00  1.00800000E+00  0.00000000E+00  1.60000000E+01
  1.00800000E+00  1.00800000E+00  0.00000000E+00  1.60000000E+01  1.00800000E+00
  1.00800000E+00  0.00000000E+00  1.60000000E+01  1.00800000E+00  1.00800000E+00
  0.00000000E+00  1.60000000E+01  1.00800000E+00  1.00800000E+00  0.00000000E+00
  1.60000000E+01  1.00800000E+00  1.00800000E+00  0.00000000E+00  1.60000000E+01
  1.00800000E+00  1.00800000E+00  0.00000000E+00  1.60000000E+01  1.00800000E+00
  1.00800000E+00  0.00000000E+00  1.60000000E+01  1.00800000E+00  1.00800000E+00
  0.00000000E+00  1.60000000E+01  1.00800000E+00  1.00800000E+00  0.00000000E+00
  1.60000000E+01  1.00800000E+00  1.00800000E+00  0.00000000E+00  1.60000000E+01
  1.00800000E+00  1.00800000E+00  0.00000000E+00  1.60000000E+01  1.00800000E+00
  1.00800000E+00  0.00000000E+00  1.60000000E+01  1.00800000E+00  1.00800000E+00
  0.00000000E+00  1.60000000E+01  1.00800000E+00  1.00800000E+00  0.00000000E+00
  1.60000000E+01  1.00800000E+00  1.00800000E+00  0.00000000E+00  1.60000000E+01
  1.00800000E+00  1.00800000E+00  0.00000000E+00  1.60000000E+01  1.00800000E+00
  1.00800000E+00  0.00000000E+00  1.60000000E+01  1.00800000E+00  1.00800000E+00
  0.00000000E+00  1.60000000E+01  1.00800000E+00  1.00800000E+00  0.00000000E+00
  1.60000000E+01  1.00800000E+00  1.00800000E+00  0.00000000E+00  1.60000000E+01
  1.00800000E+00  1.00800000E+00  0.00000000E+00  1.60000000E+01  1.00800000E+00
  1.00800000E+00  0.00000000E+00  1.60000000E+01  1.00800000E+00  1.00800000E+00
  0.00000000E+00  1.60000000E+01  1.00800000E+00  1.00800000E+00  0.00000000E+00
  1.60000000E+01  1.00800000E+00  1.00800000E+00  0.00000000E+00  1.60000000E+01
  1.00800000E+00  1.00800000E+00  0.00000000E+00  1.60000000E+01  1.00800000E+00
  1.00800000E+00  0.00000000E+00  1.60000000E+01  1.00800000E+00  1.00800000E+00
  0.00000000E+00  1.60000000E+01  1.00800000E+00  1.00800000E+00  0.00000000E+00
  1.60000000E+01  1.00800000E+00  1.00800000E+00  0.00000000E+00  1.60000000E+01
  1.00800000E+00  1.00800000E+00  0.00000000E+00  1.60000000E+01  1.00800000E+00
  1.00800000E+00  0.00000000E+00  1.60000000E+01  1.00800000E+00  1.00800000E+00
  0.00000000E+00  1.60000000E+01  1.00800000E+00  1.00800000E+00  0.00000000E+00
  1.60000000E+01  1.00800000E+00  1.00800000E+00  0.00000000E+00  1.60000000E+01
  1.00800000E+00  1.00800000E+00  0.00000000E+00  1.60000000E+01  1.00800000E+00
  1.00800000E+00  0.00000000E+00  1.60000000E+01  1.00800000E+00  1.00800000E+00
  0.00000000E+00  1.60000000E+01  1.00800000E+00  1.00800000E+00  0.00000000E+00
  1.60000000E+01  1.00800000E+00  1.00800000E+00  0.00000000E+00  1.60000000E+01
  1.00800000E+00  1.00800000E+00  0.00000000E+00  1.60000000E+01  1.00800000E+00
  1.00800000E+00  0.00000000E+00  1.60000000E+01  1.00800000E+00  1.00800000E+00
  0.00000000E+00  1.60000000E+01  1.00800000E+00  1.00800000E+00  0.00000000E+00
  1.60000000E+01  1.00800000E+00  1.00800000E+00  0.00000000E+00  1.60000000E+01
  1.00800000E+00  1.00800000E+00  0.00000000E+00  1.60000000E+01  1.00800000E+00
  1.00800000E+00  0.00000000E+00  1.60000000E+01  1.00800000E+00  1.00800000E+00
  0.00000000E+00  1.60000000E+01  1.00800000E+00  1.00800000E+00  0.00000000E+00
  1.60000000E+01  1.00800000E+00  1.00800000E+00  0.00000000E+00  1.60000000E+01
  1.00800000E+00  1.00800000E+00  0.00000000E+00  1.60000000E+01  1.00800000E+00
  1.00800000E+00  0.00000000E+00  1.60000000E+01  1.00800000E+00  1.00800000E+00
  0.00000000E+00  1.60000000E+01  1.00800000E+00  1.00800000E+00  0.00000000E+00
  1.60000000E+01  1.00800000E+00  1.00800000E+00  0.00000000E+00  1.60000000E+01
  1.00800000E+00  1.00800000E+00  0.00000000E+00  1.60000000E+01  1.00800000E+00
  1.00800000E+00  0.00000000E+00  1.60000000E+01  1.00800000E+00  1.00800000E+00
  0.00000000E+00  1.60000000E+01  1.00800000E+00  1.00800000E+00  0.00000000E+00
  1.60000000E+01  1.00800000E+00  1.00800000E+00  0.00000000E+00  1.60000000E+01
  1.00800000E+00  1.00800000E+00  0.00000000E+00  1.60000000E+01  1.00800000E+00
  1.00800000E+00  0.00000000E+00  1.60000000E+01  1.00800000E+00  1.00800000E+00
  0.00000000E+00  1.60000000E+01  1.00800000E+00  1.00800000E+00  0.00000000E+00
  1.60000000E+01  1.00800000E+00  1.00800000E+00  0.00000000E+00  1.60000000E+01
  1.00800000E+00  1.00800000E+00  0.00000000E+00  1.60000000E+01  1.00800000E+00
  1.00800000E+00  0.00000000E+00  1.60000000E+01  1.00800000E+00  1.00800000E+00
  0.00000000E+00  1.60000000E+01  1.00800000E+00  1.00800000E+00  0.00000000E+00
  1.60000000E+01  1.00800000E+00  1.00800000E+00  0.00000000E+00  1.60000000E+01
  1.00800000E+00  1.00800000E+00  0.00000000E+00  1.60000000E+01  1.00800000E+00
  1.00800000E+00  0.00000000E+00  1.60000000E+01  1.00800000E+00  1.00800000E+00
  0.00000000E+00  1.60000000E+01  1.00800000E+00  1.00800000E+00  0.00000000E+00
  1.60000000E+01  1.00800000E+00  1.00800000E+00  0.00000000E+00  1.60000000E+01
  1.00800000E+00  1.00800000E+00  0.00000000E+00  1.60000000E+01  1.00800000E+00
  1.00800000E+00  0.00000000E+00  1.60000000E+01  1.00800000E+00  1.00800000E+00
  0.00000000E+00  1.60000000E+01  1.00800000E+00  1.00800000E+00  0.00000000E+00
  1.60000000E+01  1.00800000E+00  1.00800000E+00  0.00000000E+00  1.60000000E+01
  1.00800000E+00  1.00800000E+00  0.00000000E+00  1.60000000E+01  1.00800000E+00
  1.00800000E+00  0.00000000E+00  1.60000000E+01  1.00800000E+00  1.00800000E+00
  0.00000000E+00  1.60000000E+01  1.00800000E+00  1.00800000E+00  0.00000000E+00
  1.60000000E+01  1.00800000E+00  1.00800000E+00  0.00000000E+00  1.60000000E+01
  1.00800000E+00  1.00800000E+00  0.00000000E+00  1.60000000E+01  1.00800000E+00
  1.00800000E+00  0.00000000E+00  1.60000000E+01  1.00800000E+00  1.00800000E+00
  0.00000000E+00  1.60000000E+01  1.00800000E+00  1.00800000E+00  0.00000000E+00
  1.60000000E+01  1.00800000E+00  1.00800000E+00  0.00000000E+00  1.60000000E+01
  1.00800000E+00  1.00800000E+00  0.00000000E+00  1.60000000E+01  1.00800000E+00
  1.00800000E+00  0.00000000E+00  1.60000000E+01  1.00800000E+00  1.00800000E+00
  0.00000000E+00  1.60000000E+01  1.00800000E+00  1.00800000E+00  0.00000000E+00
  1.60000000E+01  1.00800000E+00  1.00800000E+00  0.00000000E+00  1.60000000E+01
  1.00800000E+00  1.00800000E+00  0.00000000E+00  1.60000000E+01  1.00800000E+00
  1.00800000E+00  0.00000000E+00  1.60000000E+01  1.00800000E+00  1.00800000E+00
  0.00000000E+00  1.60000000E+01  1.00800000E+00  1.00800000E+00  0.00000000E+00
  1.60000000E+01  1.00800000E+00  1.00800000E+00  0.00000000E+00  1.60000000E+01
  1.00800000E+00  1.00800000E+00  0.00000000E+00  1.60000000E+01  1.00800000E+00
  1.00800000E+00  0.00000000E+00  1.60000000E+01  1.00800000E+00  1.00800000E+00
  0.00000000E+00  1.60000000E+01  1.00800000E+00  1.00800000E+00  0.00000000E+00
  1.60000000E+01  1.00800000E+00  1.00800000E+00  0.00000000E+00  1.60000000E+01
  1.00800000E+00  1.00800000E+00  0.00000000E+00  1.60000000E+01  1.00800000E+00
  1.00800000E+00  0.00000000E+00  1.60000000E+01  1.00800000E+00  1.00800000E+00
  0.00000000E+00  1.60000000E+01  1.00800000E+00  1.00800000E+00  0.00000000E+00
  1.60000000E+01  1.00800000E+00  1.00800000E+00  0.00000000E+00  1.60000000E+01
  1.00800000E+00  1.00800000E+00  0.00000000E+00  1.60000000E+01  1.00800000E+00
  1.00800000E+00  0.00000000E+00  1.60000000E+01  1.00800000E+00  1.00800000E+00
  0.00000000E+00  1.60000000E+01  1.00800000E+00  1.00800000E+00  0.00000000E+00
  1.60000000E+01  1.00800000E+00  1.00800000E+00  0.00000000E+00  1.60000000E+01
  1.00800000E+00  1.00800000E+00  0.00000000E+00  1.60000000E+01  1.00800000E+00
  1.00800000E+00  0.00000000E+00  1.60000000E+01  1.00800000E+00  1.00800000E+00
  0.00000000E+00  1.60000000E+01  1.00800000E+00  1.00800000E+00  0.00000000E+00
  1.60000000E+01  1.00800000E+00  1.00800000E+00  0.00000000E+00  1.60000000E+01
  1.00800000E+00  1.00800000E+00  0.00000000E+00  1.60000000E+01  1.00800000E+00
  1.00800000E+00  0.00000000E+00  1.60000000E+01  1.00800000E+00  1.00800000E+00
  0.00000000E+00  1.60000000E+01  1.00800000E+00  1.00800000E+00  0.00000000E+00
  1.60000000E+01  1.00800000E+00  1.00800000E+00  0.00000000E+00  1.60000000E+01
  1.00800000E+00  1.00800000E+00  0.00000000E+00  1.60000000E+01  1.00800000E+00
  1.00800000E+00  0.00000000E+00  1.60000000E+01  1.00800000E+00  1.00800000E+00
  0.00000000E+00  1.60000000E+01  1.00800000E+00  1.00800000E+00  0.00000000E+00
  1.60000000E+01  1.00800000E+00  1.00800000E+00  0.00000000E+00  1.60000000E+01
  1.00800000E+00  1.00800000E+00  0.00000000E+00  1.60000000E+01  1.00800000E+00
  1.00800000E+00  0.00000000E+00  1.60000000E+01  1.00800000E+00  1.00800000E+00
  0.00000000E+00  1.60000000E+01  1.00800000E+00  1.00800000E+00  0.00000000E+00
  1.60000000E+01  1.00800000E+00  1.00800000E+00  0.00000000E+00  1.60000000E+01
  1.00800000E+00  1.00800000E+00  0.00000000E+00  1.60000000E+01  1.00800000E+00
  1.00800000E+00  0.00000000E+00  1.60000000E+01  1.00800000E+00  1.00800000E+00
  0.00000000E+00  1.60000000E+01  1.00800000E+00  1.00800000E+00  0.00000000E+00
  1.60000000E+01  1.00800000E+00  1.00800000E+00  0.00000000E+00  1.60000000E+01
  1.00800000E+00  1.00800000E+00  0.00000000E+00  1.60000000E+01  1.00800000E+00
  1.00800000E+00  0.00000000E+00  1.60000000E+01  1.00800000E+00  1.00800000E+00
  0.00000000E+00  1.60000000E+01  1.00800000E+00  1.00800000E+00  0.00000000E+00
  1.60000000E+01  1.00800000E+00  1.00800000E+00  0.00000000E+00  1.60000000E+01
  1.00800000E+00  1.00800000E+00  0.00000000E+00  1.60000000E+01  1.00800000E+00
  1.00800000E+00  0.00000000E+00  1.60000000E+01  1.00800000E+00  1.00800000E+00
  0.00000000E+00  1.60000000E+01  1.00800000E+00  1.00800000E+00  0.00000000E+00
  1.60000000E+01  1.00800000E+00  1.00800000E+00  0.00000000E+00  1.60000000E+01
  1.00800000E+00  1.00800000E+00  0.00000000E+00  1.60000000E+01  1.00800000E+00
  1.00800000E+00  0.00000000E+00  1.60000000E+01  1.00800000E+00  1.00800000E+00
  0.00000000E+00  1.60000000E+01  1.00800000E+00  1.00800000E+00  0.00000000E+00
  1.60000000E+01  1.00800000E+00  1.00800000E+00  0.00000000E+00  1.60000000E+01
  1.00800000E+00  1.00800000E+00  0.00000000E+00  1.60000000E+01  1.00800000E+00
  1.00800000E+00  0.00000000E+00  1.60000000E+01  1.00800000E+00  1.00800000E+00
  0.00000000E+00  1.60000000E+01  1.00800000E+00  1.00800000E+00  0.00000000E+00
  1.60000000E+01  1.00800000E+00  1.00800000E+00  0.00000000E+00  1.60000000E+01
  1.00800000E+00  1.00800000E+00  0.00000000E+00  1.60000000E+01  1.00800000E+00
  1.00800000E+00  0.00000000E+00  1.60000000E+01  1.00800000E+00  1.00800000E+00
  0.00000000E+00  1.60000000E+01  1.00800000E+00  1.00800000E+00  0.00000000E+00
  1.60000000E+01  1.00800000E+00  1.00800000E+00  0.00000000E+00  1.60000000E+01
  1.00800000E+00  1.00800000E+00  0.00000000E+00  1.60000000E+01  1.00800000E+00
  1.00800000E+00  0.00000000E+00  1.60000000E+01  1.00800000E+00  1.00800000E+00
  0.00000000E+00  1.60000000E+01  1.00800000E+00  1.00800000E+00  0.00000000E+00
  1.60000000E+01  1.00800000E+00  1.00800000E+00  0.00000000E+00  1.60000000E+01
  1.00800000E+00  1.00800000E+00  0.00000000E+00  1.60000000E+01  1.00800000E+00
  1.00800000E+00  0.00000000E+00  1.60000000E+01  1.00800000E+00  1.00800000E+00
  0.00000000E+00  1.60000000E+01  1.00800000E+00  1.00800000E+00  0.00000000E+00
  1.60000000E+01  1.00800000E+00  1.00800000E+00  0.00000000E+00  1.60000000E+01
  1.00800000E+00  1.00800000E+00  0.00000000E+00  1.60000000E+01  1.00800000E+00
  1.00800000E+00  0.00000000E+00  1.60000000E+01  1.00800000E+00  1.00800000E+00
  0.00000000E+00  1.60000000E+01  1.00800000E+00  1.00800000E+00  0.00000000E+00
  1.60000000E+01  1.00800000E+00  1.00800000E+00  0.00000000E+00  1.60000000E+01
  1.00800000E+00  1.00800000E+00  0.00000000E+00  1.60000000E+01  1.00800000E+00
  1.00800000E+00  0.00000000E+00  1.60000000E+01  1.00800000E+00  1.00800000E+00
  0.00000000E+00  1.60000000E+01  1.00800000E+00  1.00800000E+00  0.00000000E+00
  1.60000000E+01  1.00800000E+00  1.00800000E+00  0.00000000E+00  1.60000000E+01
  1.00800000E+00  1.00800000E+00  0.00000000E+00  1.60000000E+01  1.00800000E+00
  1.00800000E+00  0.00000000E+00  1.60000000E+01  1.00800000E+00  1.00800000E+00
  0.00000000E+00  1.60000000E+01  1.00800000E+00  1.00800000E+00  0.00000000E+00
  1.60000000E+01  1.00800000E+00  1.00800000E+00  0.00000000E+00  1.60000000E+01
  1.00800000E+00  1.00800000E+00  0.00000000E+00  1.60000000E+01  1.00800000E+00
  1.00800000E+00  0.00000000E+00  1.60000000E+01  1.00800000E+00  1.00800000E+00
  0.00000000E+00  1.60000000E+01  1.00800000E+00  1.00800000E+00  0.00000000E+00
  1.60000000E+01  1.00800000E+00  1.00800000E+00  0.00000000E+00  1.60000000E+01
  1.00800000E+00  1.00800000E+00  0.00000000E+00  1.60000000E+01  1.00800000E+00
  1.00800000E+00  0.00000000E+00  1.60000000E+01  1.00800000E+00  1.00800000E+00
  0.00000000E+00  1.60000000E+01  1.00800000E+00  1.00800000E+00  0.00000000E+00
  1.60000000E+01  1.00800000E+00  1.00800000E+00  0.00000000E+00  1.60000000E+01
  1.00800000E+00  1.00800000E+00  0.00000000E+00  1.60000000E+01  1.00800000E+00
  1.00800000E+00  0.00000000E+00  1.60000000E+01  1.00800000E+00  1.00800000E+00
  0.00000000E+00  1.60000000E+01  1.00800000E+00  1.00800000E+00  0.00000000E+00
  1.60000000E+01  1.00800000E+00  1.00800000E+00  0.00000000E+00  1.60000000E+01
  1.00800000E+00  1.00800000E+00  0.00000000E+00  1.60000000E+01  1.00800000E+00
  1.00800000E+00  0.00000000E+00  1.60000000E+01  1.00800000E+00  1.00800000E+00
  0.00000000E+00  1.60000000E+01  1.00800000E+00  1.00800000E+00  0.00000000E+00
  1.60000000E+01  1.00800000E+00  1.00800000E+00  0.00000000E+00  1.60000000E+01
  1.00800000E+00  1.00800000E+00  0.00000000E+00  1.60000000E+01  1.00800000E+00
  1.00800000E+00  0.00000000E+00  1.60000000E+01  1.00800000E+00  1.00800000E+00
  0.00000000E+00  1.60000000E+01  1.00800000E+00  1.00800000E+00  0.00000000E+00
  1.60000000E+01  1.00800000E+00  1.00800000E+00  0.00000000E+00  1.60000000E+01
  1.00800000E+00  1.00800000E+00  0.00000000E+00  1.60000000E+01  1.00800000E+00
  1.00800000E+00  0.00000000E+00  1.60000000E+01  1.00800000E+00  1.00800000E+00
  0.00000000E+00  1.60000000E+01  1.00800000E+00  1.00800000E+00  0.00000000E+00
  1.60000000E+01  1.00800000E+00  1.00800000E+00  0.00000000E+00  1.60000000E+01
  1.00800000E+00  1.00800000E+00  0.00000000E+00  1.60000000E+01  1.00800000E+00
  1.00800000E+00  0.00000000E+00  1.60000000E+01  1.00800000E+00  1.00800000E+00
  0.00000000E+00  1.60000000E+01  1.00800000E+00  1.00800000E+00  0.00000000E+00
  1.60000000E+01  1.00800000E+00  1.00800000E+00  0.00000000E+00  1.60000000E+01
  1.00800000E+00  1.00800000E+00  0.00000000E+00  1.60000000E+01  1.00800000E+00
  1.00800000E+00  0.00000000E+00  1.60000000E+01  1.00800000E+00  1.00800000E+00
  0.00000000E+00  1.60000000E+01  1.00800000E+00  1.00800000E+00  0.00000000E+00
  1.60000000E+01  1.00800000E+00  1.00800000E+00  0.00000000E+00  1.60000000E+01
  1.00800000E+00  1.00800000E+00  0.00000000E+00  1.60000000E+01  1.00800000E+00
  1.00800000E+00  0.00000000E+00  1.60000000E+01  1.00800000E+00  1.00800000E+00
  0.00000000E+00  1.60000000E+01  1.00800000E+00  1.00800000E+00  0.00000000E+00
  1.60000000E+01  1.00800000E+00  1.00800000E+00  0.00000000E+00  1.60000000E+01
  1.00800000E+00  1.00800000E+00  0.00000000E+00  1.60000000E+01  1.00800000E+00
  1.00800000E+00  0.00000000E+00  1.60000000E+01  1.00800000E+00  1.00800000E+00
  0.00000000E+00  1.60000000E+01  1.00800000E+00  1.00800000E+00  0.00000000E+00
  1.60000000E+01  1.00800000E+00  1.00800000E+00  0.00000000E+00  1.60000000E+01
  1.00800000E+00  1.00800000E+00  0.00000000E+00  1.60000000E+01  1.00800000E+00
  1.00800000E+00  0.00000000E+00  1.60000000E+01  1.00800000E+00  1.00800000E+00
  0.00000000E+00  1.60000000E+01  1.00800000E+00  1.00800000E+00  0.00000000E+00
  1.60000000E+01  1.00800000E+00  1.00800000E+00  0.00000000E+00  1.60000000E+01
  1.00800000E+00  1.00800000E+00  0.00000000E+00  1.60000000E+01  1.00800000E+00
  1.00800000E+00  0.00000000E+00  1.60000000E+01  1.00800000E+00  1.00800000E+00
  0.00000000E+00  1.60000000E+01  1.00800000E+00  1.00800000E+00  0.00000000E+00
  1.60000000E+01  1.00800000E+00  1.00800000E+00  0.00000000E+00  1.60000000E+01
  1.00800000E+00  1.00800000E+00  0.00000000E+00  1.60000000E+01  1.00800000E+00
  1.00800000E+00  0.00000000E+00  1.60000000E+01  1.00800000E+00  1.00800000E+00
  0.00000000E+00  1.60000000E+01  1.00800000E+00  1.00800000E+00  0.00000000E+00
  1.60000000E+01  1.00800000E+00  1.00800000E+00  0.00000000E+00  1.60000000E+01
  1.00800000E+00  1.00800000E+00  0.00000000E+00  1.60000000E+01  1.00800000E+00
  1.00800000E+00  0.00000000E+00  1.60000000E+01  1.00800000E+00  1.00800000E+00
  0.00000000E+00  1.60000000E+01  1.00800000E+00  1.00800000E+00  0.00000000E+00
  1.60000000E+01  1.00800000E+00  1.00800000E+00  0.00000000E+00  1.60000000E+01
  1.00800000E+00  1.00800000E+00  0.00000000E+00  1.60000000E+01  1.00800000E+00
  1.00800000E+00  0.00000000E+00  1.60000000E+01  1.00800000E+00  1.00800000E+00
  0.00000000E+00  1.60000000E+01  1.00800000E+00  1.00800000E+00  0.00000000E+00
  1.60000000E+01  1.00800000E+00  1.00800000E+00  0.00000000E+00  1.60000000E+01
  1.00800000E+00  1.00800000E+00  0.00000000E+00  1.60000000E+01  1.00800000E+00
  1.00800000E+00  0.00000000E+00  1.60000000E+01  1.00800000E+00  1.00800000E+00
  0.00000000E+00  1.60000000E+01  1.00800000E+00  1.00800000E+00  0.00000000E+00
  1.60000000E+01  1.00800000E+00  1.00800000E+00  0.00000000E+00  1.60000000E+01
  1.00800000E+00  1.00800000E+00  0.00000000E+00  1.60000000E+01  1.00800000E+00
  1.00800000E+00  0.00000000E+00  1.60000000E+01  1.00800000E+00  1.00800000E+00
  0.00000000E+00  1.60000000E+01  1.00800000E+00  1.00800000E+00  0.00000000E+00
  1.60000000E+01  1.00800000E+00  1.00800000E+00  0.00000000E+00  1.60000000E+01
  1.00800000E+00  1.00800000E+00  0.00000000E+00  1.60000000E+01  1.00800000E+00
  1.00800000E+00  0.00000000E+00  1.60000000E+01  1.00800000E+00  1.00800000E+00
  0.00000000E+00  1.60000000E+01  1.00800000E+00  1.00800000E+00  0.00000000E+00
  1.60000000E+01  1.00800000E+00  1.00800000E+00  0.00000000E+00  1.60000000E+01
  1.00800000E+00  1.00800000E+00  0.00000000E+00  1.60000000E+01  1.00800000E+00
  1.00800000E+00  0.00000000E+00  1.60000000E+01  1.00800000E+00  1.00800000E+00
  0.00000000E+00  1.60000000E+01  1.00800000E+00  1.00800000E+00  0.00000000E+00
  1.60000000E+01  1.00800000E+00  1.00800000E+00  0.00000000E+00  1.60000000E+01
  1.00800000E+00  1.00800000E+00  0.00000000E+00  1.60000000E+01  1.00800000E+00
  1.00800000E+00  0.00000000E+00  1.60000000E+01  1.00800000E+00  1.00800000E+00
  0.00000000E+00  1.60000000E+01  1.00800000E+00  1.00800000E+00  0.00000000E+00
  1.60000000E+01  1.00800000E+00  1.00800000E+00  0.00000000E+00  1.60000000E+01
  1.00800000E+00  1.00800000E+00  0.00000000E+00  1.60000000E+01  1.00800000E+00
  1.00800000E+00  0.00000000E+00  1.60000000E+01  1.00800000E+00  1.00800000E+00
  0.00000000E+00  1.60000000E+01  1.00800000E+00  1.00800000E+00  0.00000000E+00
  1.60000000E+01  1.00800000E+00  1.00800000E+00  0.00000000E+00  1.60000000E+01
  1.00800000E+00  1.00800000E+00  0.00000000E+00  1.60000000E+01  1.00800000E+00
  1.00800000E+00  0.00000000E+00  1.60000000E+01  1.00800000E+00  1.00800000E+00
  0.00000000E+00  1.60000000E+01  1.00800000E+00  1.00800000E+00  0.00000000E+00
  1.60000000E+01  1.00800000E+00  1.00800000E+00  0.00000000E+00  1.60000000E+01
  1.00800000E+00  1.00800000E+00  0.00000000E+00  1.60000000E+01  1.00800000E+00
  1.00800000E+00  0.00000000E+00  1.60000000E+01  1.00800000E+00  1.00800000E+00
  0.00000000E+00  1.60000000E+01  1.00800000E+00  1.00800000E+00  0.00000000E+00
  1.60000000E+01  1.00800000E+00  1.00800000E+00  0.00000000E+00  1.60000000E+01
  1.00800000E+00  1.00800000E+00  0.00000000E+00  1.60000000E+01  1.00800000E+00
  1.00800000E+00  0.00000000E+00  1.60000000E+01  1.00800000E+00  1.00800000E+00
  0.00000000E+00  1.60000000E+01  1.00800000E+00  1.00800000E+00  0.00000000E+00
  1.60000000E+01  1.00800000E+00  1.00800000E+00  0.00000000E+00  1.60000000E+01
  1.00800000E+00  1.00800000E+00  0.00000000E+00  1.60000000E+01  1.00800000E+00
  1.00800000E+00  0.00000000E+00  1.60000000E+01  1.00800000E+00  1.00800000E+00
  0.00000000E+00  1.60000000E+01  1.00800000E+00  1.00800000E+00  0.00000000E+00
  1.60000000E+01  1.00800000E+00  1.00800000E+00  0.00000000E+00  1.60000000E+01
  1.00800000E+00  1.00800000E+00  0.00000000E+00  1.60000000E+01  1.00800000E+00
  1.00800000E+00  0.00000000E+00  1.60000000E+01  1.00800000E+00  1.00800000E+00
  0.00000000E+00  1.60000000E+01  1.00800000E+00  1.00800000E+00  0.00000000E+00
  1.60000000E+01  1.00800000E+00  1.00800000E+00  0.00000000E+00  1.60000000E+01
  1.00800000E+00  1.00800000E+00  0.00000000E+00  1.60000000E+01  1.00800000E+00
  1.00800000E+00  0.00000000E+00  1.60000000E+01  1.00800000E+00  1.00800000E+00
  0.00000000E+00  1.60000000E+01  1.00800000E+00  1.00800000E+00  0.00000000E+00
  1.60000000E+01  1.00800000E+00  1.00800000E+00  0.00000000E+00  1.60000000E+01
  1.00800000E+00  1.00800000E+00  0.00000000E+00  1.60000000E+01  1.00800000E+00
  1.00800000E+00  0.00000000E+00  1.60000000E+01  1.00800000E+00  1.00800000E+00
  0.00000000E+00  1.60000000E+01  1.00800000E+00  1.00800000E+00  0.00000000E+00
  1.60000000E+01  1.00800000E+00  1.00800000E+00  0.00000000E+00  1.60000000E+01
  1.00800000E+00  1.00800000E+00  0.00000000E+00  1.60000000E+01  1.00800000E+00
  1.00800000E+00  0.00000000E+00  1.60000000E+01  1.00800000E+00  1.00800000E+00
  0.00000000E+00  1.60000000E+01  1.00800000E+00  1.00800000E+00  0.00000000E+00
  1.60000000E+01  1.00800000E+00  1.00800000E+00  0.00000000E+00  1.60000000E+01
  1.00800000E+00  1.00800000E+00  0.00000000E+00  1.60000000E+01  1.00800000E+00
  1.00800000E+00  0.00000000E+00  1.60000000E+01  1.00800000E+00  1.00800000E+00
  0.00000000E+00  1.60000000E+01  1.00800000E+00  1.00800000E+00  0.00000000E+00
  1.60000000E+01  1.00800000E+00  1.00800000E+00  0.00000000E+00  1.60000000E+01
  1.00800000E+00  1.00800000E+00  0.00000000E+00  1.60000000E+01  1.00800000E+00
  1.00800000E+00  0.00000000E+00  1.60000000E+01  1.00800000E+00  1.00800000E+00
  0.00000000E+00  1.60000000E+01  1.00800000E+00  1.00800000E+00  0.00000000E+00
  1.60000000E+01  1.00800000E+00  1.00800000E+00  0.00000000E+00  1.60000000E+01
  1.00800000E+00  1.00800000E+00  0.00000000E+00  1.60000000E+01  1.00800000E+00
  1.00800000E+00  0.00000000E+00  1.60000000E+01  1.00800000E+00  1.00800000E+00
  0.00000000E+00  1.60000000E+01  1.00800000E+00  1.00800000E+00  0.00000000E+00
  1.60000000E+01  1.00800000E+00  1.00800000E+00  0.00000000E+00  1.60000000E+01
  1.00800000E+00  1.00800000E+00  0.00000000E+00  1.60000000E+01  1.00800000E+00
  1.00800000E+00  0.00000000E+00  1.60000000E+01  1.00800000E+00  1.00800000E+00
  0.00000000E+00  1.60000000E+01  1.00800000E+00  1.00800000E+00  0.00000000E+00
  1.60000000E+01  1.00800000E+00  1.00800000E+00  0.00000000E+00  1.60000000E+01
  1.00800000E+00  1.00800000E+00  0.00000000E+00  1.60000000E+01  1.00800000E+00
  1.00800000E+00  0.00000000E+00  1.60000000E+01  1.00800000E+00  1.00800000E+00
  0.00000000E+00  1.60000000E+01  1.00800000E+00  1.00800000E+00  0.00000000E+00
  1.60000000E+01  1.00800000E+00  1.00800000E+00  0.00000000E+00  1.60000000E+01
  1.00800000E+00  1.00800000E+00  0.00000000E+00  1.60000000E+01  1.00800000E+00
  1.00800000E+00  0.00000000E+00  1.60000000E+01  1.00800000E+00  1.00800000E+00
  0.00000000E+00  1.60000000E+01  1.00800000E+00  1.00800000E+00  0.00000000E+00
  1.60000000E+01  1.00800000E+00  1.00800000E+00  0.00000000E+00  1.60000000E+01
  1.00800000E+00  1.00800000E+00  0.00000000E+00  1.60000000E+01  1.00800000E+00
  1.00800000E+00  0.00000000E+00  1.60000000E+01  1.00800000E+00  1.00800000E+00
  0.00000000E+00  1.60000000E+01  1.00800000E+00  1.00800000E+00  0.00000000E+00
  1.60000000E+01  1.00800000E+00  1.00800000E+00  0.00000000E+00  1.60000000E+01
  1.00800000E+00  1.00800000E+00  0.00000000E+00  1.60000000E+01  1.00800000E+00
  1.00800000E+00  0.00000000E+00  1.60000000E+01  1.00800000E+00  1.00800000E+00
  0.00000000E+00  1.60000000E+01  1.00800000E+00  1.00800000E+00  0.00000000E+00
  1.60000000E+01  1.00800000E+00  1.00800000E+00  0.00000000E+00  1.60000000E+01
  1.00800000E+00  1.00800000E+00  0.00000000E+00  1.60000000E+01  1.00800000E+00
  1.00800000E+00  0.00000000E+00  1.60000000E+01  1.00800000E+00  1.00800000E+00
  0.00000000E+00  1.60000000E+01  1.00800000E+00  1.00800000E+00  0.00000000E+00
  1.60000000E+01  1.00800000E+00  1.00800000E+00  0.00000000E+00  1.60000000E+01
  1.00800000E+00  1.00800000E+00  0.00000000E+00  1.60000000E+01  1.00800000E+00
  1.00800000E+00  0.00000000E+00  1.60000000E+01  1.00800000E+00  1.00800000E+00
  0.00000000E+00  1.60000000E+01  1.00800000E+00  1.00800000E+00  0.00000000E+00
  1.60000000E+01  1.00800000E+00  1.00800000E+00  0.00000000E+00  1.60000000E+01
  1.00800000E+00  1.00800000E+00  0.00000000E+00  1.60000000E+01  1.00800000E+00
  1.00800000E+00  0.00000000E+00  1.60000000E+01  1.00800000E+00  1.00800000E+00
  0.00000000E+00  1.60000000E+01  1.00800000E+00  1.00800000E+00  0.00000000E+00
  1.60000000E+01  1.00800000E+00  1.00800000E+00  0.00000000E+00  1.60000000E+01
  1.00800000E+00  1.00800000E+00  0.00000000E+00  1.60000000E+01  1.00800000E+00
  1.00800000E+00  0.00000000E+00  1.60000000E+01  1.00800000E+00  1.00800000E+00
  0.00000000E+00  1.60000000E+01  1.00800000E+00  1.00800000E+00  0.00000000E+00
  1.60000000E+01  1.00800000E+00  1.00800000E+00  0.00000000E+00  1.60000000E+01
  1.00800000E+00  1.00800000E+00  0.00000000E+00  1.60000000E+01  1.00800000E+00
  1.00800000E+00  0.00000000E+00  1.60000000E+01  1.00800000E+00  1.00800000E+00
  0.00000000E+00  1.60000000E+01  1.00800000E+00  1.00800000E+00  0.00000000E+00
  1.60000000E+01  1.00800000E+00  1.00800000E+00  0.00000000E+00  1.60000000E+01
  1.00800000E+00  1.00800000E+00  0.00000000E+00  1.60000000E+01  1.00800000E+00
  1.00800000E+00  0.00000000E+00  1.60000000E+01  1.00800000E+00  1.00800000E+00
  0.00000000E+00  1.60000000E+01  1.00800000E+00  1.00800000E+00  0.00000000E+00
  1.60000000E+01  1.00800000E+00  1.00800000E+00  0.00000000E+00  1.60000000E+01
  1.00800000E+00  1.00800000E+00  0.00000000E+00  1.60000000E+01  1.00800000E+00
  1.00800000E+00  0.00000000E+00  1.60000000E+01  1.00800000E+00  1.00800000E+00
  0.00000000E+00  1.60000000E+01  1.00800000E+00  1.00800000E+00  0.00000000E+00
  1.60000000E+01  1.00800000E+00  1.00800000E+00  0.00000000E+00  1.60000000E+01
  1.00800000E+00  1.00800000E+00  0.00000000E+00  1.60000000E+01  1.00800000E+00
  1.00800000E+00  0.00000000E+00  1.60000000E+01  1.00800000E+00  1.00800000E+00
  0.00000000E+00  1.60000000E+01  1.00800000E+00  1.00800000E+00  0.00000000E+00
  1.60000000E+01  1.00800000E+00  1.00800000E+00  0.00000000E+00  1.60000000E+01
  1.00800000E+00  1.00800000E+00  0.00000000E+00  1.60000000E+01  1.00800000E+00
  1.00800000E+00  0.00000000E+00  1.60000000E+01  1.00800000E+00  1.00800000E+00
  0.00000000E+00  1.60000000E+01  1.00800000E+00  1.00800000E+00  0.00000000E+00
  1.60000000E+01  1.00800000E+00  1.00800000E+00  0.00000000E+00  1.60000000E+01
  1.00800000E+00  1.00800000E+00  0.00000000E+00  1.60000000E+01  1.00800000E+00
  1.00800000E+00  0.00000000E+00  1.60000000E+01  1.00800000E+00  1.00800000E+00
  0.00000000E+00  1.60000000E+01  1.00800000E+00  1.00800000E+00  0.00000000E+00
  1.60000000E+01  1.00800000E+00  1.00800000E+00  0.00000000E+00  1.60000000E+01
  1.00800000E+00  1.00800000E+00  0.00000000E+00  1.60000000E+01  1.00800000E+00
  1.00800000E+00  0.00000000E+00  1.60000000E+01  1.00800000E+00  1.00800000E+00
  0.00000000E+00  1.60000000E+01  1.00800000E+00  1.00800000E+00  0.00000000E+00
  1.60000000E+01  1.00800000E+00  1.00800000E+00  0.00000000E+00  1.60000000E+01
  1.00800000E+00  1.00800000E+00  0.00000000E+00  1.60000000E+01  1.00800000E+00
  1.00800000E+00  0.00000000E+00  1.60000000E+01  1.00800000E+00  1.00800000E+00
  0.00000000E+00  1.60000000E+01  1.00800000E+00  1.00800000E+00  0.00000000E+00
  1.60000000E+01  1.00800000E+00  1.00800000E+00  0.00000000E+00  1.60000000E+01
  1.00800000E+00  1.00800000E+00  0.00000000E+00  1.60000000E+01  1.00800000E+00
  1.00800000E+00  0.00000000E+00  1.60000000E+01  1.00800000E+00  1.00800000E+00
  0.00000000E+00  1.60000000E+01  1.00800000E+00  1.00800000E+00  0.00000000E+00
  1.60000000E+01  1.00800000E+00  1.00800000E+00  0.00000000E+00  1.60000000E+01
  1.00800000E+00  1.00800000E+00  0.00000000E+00  1.60000000E+01  1.00800000E+00
  1.00800000E+00  0.00000000E+00  1.60000000E+01  1.00800000E+00  1.00800000E+00
  0.00000000E+00  1.60000000E+01  1.00800000E+00  1.00800000E+00  0.00000000E+00
  1.60000000E+01  1.00800000E+00  1.00800000E+00  0.00000000E+00  1.60000000E+01
  1.00800000E+00  1.00800000E+00  0.00000000E+00  1.60000000E+01  1.00800000E+00
  1.00800000E+00  0.00000000E+00  1.60000000E+01  1.00800000E+00  1.00800000E+00
  0.00000000E+00  1.60000000E+01  1.00800000E+00  1.00800000E+00  0.00000000E+00
  1.60000000E+01  1.00800000E+00  1.00800000E+00  0.00000000E+00  1.60000000E+01
  1.00800000E+00  1.00800000E+00  0.00000000E+00  1.60000000E+01  1.00800000E+00
  1.00800000E+00  0.00000000E+00  1.60000000E+01  1.00800000E+00  1.00800000E+00
  0.00000000E+00  1.60000000E+01  1.00800000E+00  1.00800000E+00  0.00000000E+00
  1.60000000E+01  1.00800000E+00  1.00800000E+00  0.00000000E+00  1.60000000E+01
  1.00800000E+00  1.00800000E+00  0.00000000E+00  1.60000000E+01  1.00800000E+00
  1.00800000E+00  0.00000000E+00  1.60000000E+01  1.00800000E+00  1.00800000E+00
  0.00000000E+00  1.60000000E+01  1.00800000E+00  1.00800000E+00  0.00000000E+00
  1.60000000E+01  1.00800000E+00  1.00800000E+00  0.00000000E+00  1.60000000E+01
  1.00800000E+00  1.00800000E+00  0.00000000E+00  1.60000000E+01  1.00800000E+00
  1.00800000E+00  0.00000000E+00  1.60000000E+01  1.00800000E+00  1.00800000E+00
  0.00000000E+00  1.60000000E+01  1.00800000E+00  1.00800000E+00  0.00000000E+00
  1.60000000E+01  1.00800000E+00  1.00800000E+00  0.00000000E+00  1.60000000E+01
  1.00800000E+00  1.00800000E+00  0.00000000E+00  1.60000000E+01  1.00800000E+00
  1.00800000E+00  0.00000000E+00  1.60000000E+01  1.00800000E+00  1.00800000E+00
  0.00000000E+00  1.60000000E+01  1.00800000E+00  1.00800000E+00  0.00000000E+00
  1.60000000E+01  1.00800000E+00  1.00800000E+00  0.00000000E+00  1.60000000E+01
  1.00800000E+00  1.00800000E+00  0.00000000E+00  1.60000000E+01  1.00800000E+00
  1.00800000E+00  0.00000000E+00  1.60000000E+01  1.00800000E+00  1.00800000E+00
  0.00000000E+00  1.60000000E+01  1.00800000E+00  1.00800000E+00  0.00000000E+00
  1.60000000E+01  1.00800000E+00  1.00800000E+00  0.00000000E+00  1.60000000E+01
  1.00800000E+00  1.00800000E+00  0.00000000E+00  1.60000000E+01  1.00800000E+00
  1.00800000E+00  0.00000000E+00  1.60000000E+01  1.00800000E+00  1.00800000E+00
  0.00000000E+00  1.60000000E+01  1.00800000E+00  1.00800000E+00  0.00000000E+00
  1.60000000E+01  1.00800000E+00  1.00800000E+00  0.00000000E+00  1.60000000E+01
  1.00800000E+00  1.00800000E+00  0.00000000E+00  1.60000000E+01  1.00800000E+00
  1.00800000E+00  0.00000000E+00  1.60000000E+01  1.00800000E+00  1.00800000E+00
  0.00000000E+00  1.60000000E+01  1.00800000E+00  1.00800000E+00  0.00000000E+00
  1.60000000E+01  1.00800000E+00  1.00800000E+00  0.00000000E+00  1.60000000E+01
  1.00800000E+00  1.00800000E+00  0.00000000E+00  1.60000000E+01  1.00800000E+00
  1.00800000E+00  0.00000000E+00  1.60000000E+01  1.00800000E+00  1.00800000E+00
  0.00000000E+00  1.60000000E+01  1.00800000E+00  1.00800000E+00  0.00000000E+00
  1.60000000E+01  1.00800000E+00  1.00800000E+00  0.00000000E+00  1.60000000E+01
  1.00800000E+00  1.00800000E+00  0.00000000E+00  1.60000000E+01  1.00800000E+00
  1.00800000E+00  0.00000000E+00  1.60000000E+01  1.00800000E+00  1.00800000E+00
  0.00000000E+00  1.60000000E+01  1.00800000E+00  1.00800000E+00  0.00000000E+00
  1.60000000E+01  1.00800000E+00  1.00800000E+00  0.00000000E+00  1.60000000E+01
  1.00800000E+00  1.00800000E+00  0.00000000E+00  1.60000000E+01  1.00800000E+00
  1.00800000E+00  0.00000000E+00  1.60000000E+01  1.00800000E+00  1.00800000E+00
  0.00000000E+00  1.60000000E+01  1.00800000E+00  1.00800000E+00  0.00000000E+00
  1.60000000E+01  1.00800000E+00  1.00800000E+00  0.00000000E+00  1.60000000E+01
  1.00800000E+00  1.00800000E+00  0.00000000E+00  1.60000000E+01  1.00800000E+00
  1.00800000E+00  0.00000000E+00  1.60000000E+01  1.00800000E+00  1.00800000E+00
  0.00000000E+00  1.60000000E+01  1.00800000E+00  1.00800000E+00  0.00000000E+00
  1.60000000E+01  1.00800000E+00  1.00800000E+00  0.00000000E+00  1.60000000E+01
  1.00800000E+00  1.00800000E+00  0.00000000E+00  1.60000000E+01  1.00800000E+00
  1.00800000E+00  0.00000000E+00  1.60000000E+01  1.00800000E+00  1.00800000E+00
  0.00000000E+00  1.60000000E+01  1.00800000E+00  1.00800000E+00  0.00000000E+00
  1.60000000E+01  1.00800000E+00  1.00800000E+00  0.00000000E+00  1.60000000E+01
  1.00800000E+00  1.00800000E+00  0.00000000E+00  1.60000000E+01  1.00800000E+00
  1.00800000E+00  0.00000000E+00  1.60000000E+01  1.00800000E+00  1.00800000E+00
  0.00000000E+00  1.60000000E+01  1.00800000E+00  1.00800000E+00  0.00000000E+00
  1.60000000E+01  1.00800000E+00  1.00800000E+00  0.00000000E+00  1.60000000E+01
  1.00800000E+00  1.00800000E+00  0.00000000E+00  1.60000000E+01  1.00800000E+00
  1.00800000E+00  0.00000000E+00  1.60000000E+01  1.00800000E+00  1.00800000E+00
  0.00000000E+00  1.60000000E+01  1.00800000E+00  1.00800000E+00  0.00000000E+00
  1.60000000E+01  1.00800000E+00  1.00800000E+00  0.00000000E+00  1.60000000E+01
  1.00800000E+00  1.00800000E+00  0.00000000E+00  1.60000000E+01  1.00800000E+00
  1.00800000E+00  0.00000000E+00  1.60000000E+01  1.00800000E+00  1.00800000E+00
  0.00000000E+00  1.60000000E+01  1.00800000E+00  1.00800000E+00  0.00000000E+00
  1.60000000E+01  1.00800000E+00  1.00800000E+00  0.00000000E+00  1.60000000E+01
  1.00800000E+00  1.00800000E+00  0.00000000E+00  1.60000000E+01  1.00800000E+00
  1.00800000E+00  0.00000000E+00  1.60000000E+01  1.00800000E+00  1.00800000E+00
  0.00000000E+00  1.60000000E+01  1.00800000E+00  1.00800000E+00  0.00000000E+00
  1.60000000E+01  1.00800000E+00  1.00800000E+00  0.00000000E+00  1.60000000E+01
  1.00800000E+00  1.00800000E+00  0.00000000E+00  1.60000000E+01  1.00800000E+00
  1.00800000E+00  0.00000000E+00  1.60000000E+01  1.00800000E+00  1.00800000E+00
  0.00000000E+00  1.60000000E+01  1.00800000E+00  1.00800000E+00  0.00000000E+00
  1.60000000E+01  1.00800000E+00  1.00800000E+00  0.00000000E+00  1.60000000E+01
  1.00800000E+00  1.00800000E+00  0.00000000E+00  1.60000000E+01  1.00800000E+00
  1.00800000E+00  0.00000000E+00  1.60000000E+01  1.00800000E+00  1.00800000E+00
  0.00000000E+00  1.60000000E+01  1.00800000E+00  1.00800000E+00  0.00000000E+00
  1.60000000E+01  1.00800000E+00  1.00800000E+00  0.00000000E+00  1.60000000E+01
  1.00800000E+00  1.00800000E+00  0.00000000E+00  1.60000000E+01  1.00800000E+00
  1.00800000E+00  0.00000000E+00  1.60000000E+01  1.00800000E+00  1.00800000E+00
  0.00000000E+00  1.60000000E+01  1.00800000E+00  1.00800000E+00  0.00000000E+00
  1.60000000E+01  1.00800000E+00  1.00800000E+00  0.00000000E+00  1.60000000E+01
  1.00800000E+00  1.00800000E+00  0.00000000E+00  1.60000000E+01  1.00800000E+00
  1.00800000E+00  0.00000000E+00  1.60000000E+01  1.00800000E+00  1.00800000E+00
  0.00000000E+00  1.60000000E+01  1.00800000E+00  1.00800000E+00  0.00000000E+00
  1.60000000E+01  1.00800000E+00  1.00800000E+00  0.00000000E+00  1.60000000E+01
  1.00800000E+00  1.00800000E+00  0.00000000E+00  1.60000000E+01  1.00800000E+00
  1.00800000E+00  0.00000000E+00  1.60000000E+01  1.00800000E+00  1.00800000E+00
  0.00000000E+00  1.60000000E+01  1.00800000E+00  1.00800000E+00  0.00000000E+00
  1.60000000E+01  1.00800000E+00  1.00800000E+00  0.00000000E+00  1.60000000E+01
  1.00800000E+00  1.00800000E+00  0.00000000E+00  1.60000000E+01  1.00800000E+00
  1.00800000E+00  0.00000000E+00  1.60000000E+01  1.00800000E+00  1.00800000E+00
  0.00000000E+00  1.60000000E+01  1.00800000E+00  1.00800000E+00  0.00000000E+00
  1.60000000E+01  1.00800000E+00  1.00800000E+00  0.00000000E+00  1.60000000E+01
  1.00800000E+00  1.00800000E+00  0.00000000E+00  1.60000000E+01  1.00800000E+00
  1.00800000E+00  0.00000000E+00  1.60000000E+01  1.00800000E+00  1.00800000E+00
  0.00000000E+00  1.60000000E+01  1.00800000E+00  1.00800000E+00  0.00000000E+00
  1.60000000E+01  1.00800000E+00  1.00800000E+00  0.00000000E+00  1.60000000E+01
  1.00800000E+00  1.00800000E+00  0.00000000E+00  1.60000000E+01  1.00800000E+00
  1.00800000E+00  0.00000000E+00  1.60000000E+01  1.00800000E+00  1.00800000E+00
  0.00000000E+00  1.60000000E+01  1.00800000E+00  1.00800000E+00  0.00000000E+00
  1.60000000E+01  1.00800000E+00  1.00800000E+00  0.00000000E+00  1.60000000E+01
  1.00800000E+00  1.00800000E+00  0.00000000E+00  1.60000000E+01  1.00800000E+00
  1.00800000E+00  0.00000000E+00  1.60000000E+01  1.00800000E+00  1.00800000E+00
  0.00000000E+00  1.60000000E+01  1.00800000E+00  1.00800000E+00  0.00000000E+00
  1.60000000E+01  1.00800000E+00  1.00800000E+00  0.00000000E+00  1.60000000E+01
  1.00800000E+00  1.00800000E+00  0.00000000E+00  1.60000000E+01  1.00800000E+00
  1.00800000E+00  0.00000000E+00  1.60000000E+01  1.00800000E+00  1.00800000E+00
  0.00000000E+00  1.60000000E+01  1.00800000E+00  1.00800000E+00  0.00000000E+00
  1.60000000E+01  1.00800000E+00  1.00800000E+00  0.00000000E+00  1.60000000E+01
  1.00800000E+00  1.00800000E+00  0.00000000E+00  1.60000000E+01  1.00800000E+00
  1.00800000E+00  0.00000000E+00  1.60000000E+01  1.00800000E+00  1.00800000E+00
  0.00000000E+00  1.60000000E+01  1.00800000E+00  1.00800000E+00  0.00000000E+00
  1.60000000E+01  1.00800000E+00  1.00800000E+00  0.00000000E+00  1.60000000E+01
  1.00800000E+00  1.00800000E+00  0.00000000E+00  1.60000000E+01  1.00800000E+00
  1.00800000E+00  0.00000000E+00  1.60000000E+01  1.00800000E+00  1.00800000E+00
  0.00000000E+00  1.60000000E+01  1.00800000E+00  1.00800000E+00  0.00000000E+00
  1.60000000E+01  1.00800000E+00  1.00800000E+00  0.00000000E+00  1.60000000E+01
  1.00800000E+00  1.00800000E+00  0.00000000E+00  1.60000000E+01  1.00800000E+00
  1.00800000E+00  0.00000000E+00  1.60000000E+01  1.00800000E+00  1.00800000E+00
  0.00000000E+00  1.60000000E+01  1.00800000E+00  1.00800000E+00  0.00000000E+00
  1.60000000E+01  1.00800000E+00  1.00800000E+00  0.00000000E+00  1.60000000E+01
  1.00800000E+00  1.00800000E+00  0.00000000E+00  1.60000000E+01  1.00800000E+00
  1.00800000E+00  0.00000000E+00  1.60000000E+01  1.00800000E+00  1.00800000E+00
  0.00000000E+00  1.60000000E+01  1.00800000E+00  1.00800000E+00  0.00000000E+00
  1.60000000E+01  1.00800000E+00  1.00800000E+00  0.00000000E+00  1.60000000E+01
  1.00800000E+00  1.00800000E+00  0.00000000E+00  1.60000000E+01  1.00800000E+00
  1.00800000E+00  0.00000000E+00  1.60000000E+01  1.00800000E+00  1.00800000E+00
  0.00000000E+00  1.60000000E+01  1.00800000E+00  1.00800000E+00  0.00000000E+00
  1.60000000E+01  1.00800000E+00  1.00800000E+00  0.00000000E+00  1.60000000E+01
  1.00800000E+00  1.00800000E+00  0.00000000E+00  1.60000000E+01  1.00800000E+00
  1.00800000E+00  0.00000000E+00  1.60000000E+01  1.00800000E+00  1.00800000E+00
  0.00000000E+00  1.60000000E+01  1.00800000E+00  1.00800000E+00  0.00000000E+00
  1.60000000E+01  1.00800000E+00  1.00800000E+00  0.00000000E+00  1.60000000E+01
  1.00800000E+00  1.00800000E+00  0.00000000E+00  1.60000000E+01  1.00800000E+00
  1.00800000E+00  0.00000000E+00  1.60000000E+01  1.00800000E+00  1.00800000E+00
  0.00000000E+00  1.60000000E+01  1.00800000E+00  1.00800000E+00  0.00000000E+00
  1.60000000E+01  1.00800000E+00  1.00800000E+00  0.00000000E+00  1.60000000E+01
  1.00800000E+00  1.00800000E+00  0.00000000E+00  1.60000000E+01  1.00800000E+00
  1.00800000E+00  0.00000000E+00  1.60000000E+01  1.00800000E+00  1.00800000E+00
  0.00000000E+00  1.60000000E+01  1.00800000E+00  1.00800000E+00  0.00000000E+00
  1.60000000E+01  1.00800000E+00  1.00800000E+00  0.00000000E+00  1.60000000E+01
  1.00800000E+00  1.00800000E+00  0.00000000E+00  1.60000000E+01  1.00800000E+00
  1.00800000E+00  0.00000000E+00  1.60000000E+01  1.00800000E+00  1.00800000E+00
  0.00000000E+00  1.60000000E+01  1.00800000E+00  1.00800000E+00  0.00000000E+00
  1.60000000E+01  1.00800000E+00  1.00800000E+00  0.00000000E+00  1.60000000E+01
  1.00800000E+00  1.00800000E+00  0.00000000E+00  1.60000000E+01  1.00800000E+00
  1.00800000E+00  0.00000000E+00  1.60000000E+01  1.00800000E+00  1.00800000E+00
  0.00000000E+00  1.60000000E+01  1.00800000E+00  1.00800000E+00  0.00000000E+00
  1.60000000E+01  1.00800000E+00  1.00800000E+00  0.00000000E+00  1.60000000E+01
  1.00800000E+00  1.00800000E+00  0.00000000E+00  1.60000000E+01  1.00800000E+00
  1.00800000E+00  0.00000000E+00  1.60000000E+01  1.00800000E+00  1.00800000E+00
  0.00000000E+00  1.60000000E+01  1.00800000E+00  1.00800000E+00  0.00000000E+00
  1.60000000E+01  1.00800000E+00  1.00800000E+00  0.00000000E+00  1.60000000E+01
  1.00800000E+00  1.00800000E+00  0.00000000E+00  1.60000000E+01  1.00800000E+00
  1.00800000E+00  0.00000000E+00  1.60000000E+01  1.00800000E+00  1.00800000E+00
  0.00000000E+00  1.60000000E+01  1.00800000E+00  1.00800000E+00  0.00000000E+00
  1.60000000E+01  1.00800000E+00  1.00800000E+00  0.00000000E+00  1.60000000E+01
  1.00800000E+00  1.00800000E+00  0.00000000E+00  1.60000000E+01  1.00800000E+00
  1.00800000E+00  0.00000000E+00  1.60000000E+01  1.00800000E+00  1.00800000E+00
  0.00000000E+00  1.60000000E+01  1.00800000E+00  1.00800000E+00  0.00000000E+00
  1.60000000E+01  1.00800000E+00  1.00800000E+00  0.00000000E+00  1.60000000E+01
  1.00800000E+00  1.00800000E+00  0.00000000E+00  1.60000000E+01  1.00800000E+00
  1.00800000E+00  0.00000000E+00  1.60000000E+01  1.00800000E+00  1.00800000E+00
  0.00000000E+00  1.60000000E+01  1.00800000E+00  1.00800000E+00  0.00000000E+00
  1.60000000E+01  1.00800000E+00  1.00800000E+00  0.00000000E+00  1.60000000E+01
  1.00800000E+00  1.00800000E+00  0.00000000E+00  1.60000000E+01  1.00800000E+00
  1.00800000E+00  0.00000000E+00  1.60000000E+01  1.00800000E+00  1.00800000E+00
  0.00000000E+00  1.60000000E+01  1.00800000E+00  1.00800000E+00  0.00000000E+00
  1.60000000E+01  1.00800000E+00  1.00800000E+00  0.00000000E+00  1.60000000E+01
  1.00800000E+00  1.00800000E+00  0.00000000E+00  1.60000000E+01  1.00800000E+00
  1.00800000E+00  0.00000000E+00  1.60000000E+01  1.00800000E+00  1.00800000E+00
  0.00000000E+00  1.60000000E+01  1.00800000E+00  1.00800000E+00  0.00000000E+00
  1.60000000E+01  1.00800000E+00  1.00800000E+00  0.00000000E+00  1.60000000E+01
  1.00800000E+00  1.00800000E+00  0.00000000E+00  1.60000000E+01  1.00800000E+00
  1.00800000E+00  0.00000000E+00  1.60000000E+01  1.00800000E+00  1.00800000E+00
  0.00000000E+00  1.60000000E+01  1.00800000E+00  1.00800000E+00  0.00000000E+00
  1.60000000E+01  1.00800000E+00  1.00800000E+00  0.00000000E+00  1.60000000E+01
  1.00800000E+00  1.00800000E+00  0.00000000E+00  1.60000000E+01  1.00800000E+00
  1.00800000E+00  0.00000000E+00  1.60000000E+01  1.00800000E+00  1.00800000E+00
  0.00000000E+00  1.60000000E+01  1.00800000E+00  1.00800000E+00  0.00000000E+00
  1.60000000E+01  1.00800000E+00  1.00800000E+00  0.00000000E+00  1.60000000E+01
  1.00800000E+00  1.00800000E+00  0.00000000E+00  1.60000000E+01  1.00800000E+00
  1.00800000E+00  0.00000000E+00  1.60000000E+01  1.00800000E+00  1.00800000E+00
  0.00000000E+00  1.60000000E+01  1.00800000E+00  1.00800000E+00  0.00000000E+00
  1.60000000E+01  1.00800000E+00  1.00800000E+00  0.00000000E+00  1.60000000E+01
  1.00800000E+00  1.00800000E+00  0.00000000E+00  1.60000000E+01  1.00800000E+00
  1.00800000E+00  0.00000000E+00  1.60000000E+01  1.00800000E+00  1.00800000E+00
  0.00000000E+00  1.60000000E+01  1.00800000E+00  1.00800000E+00  0.00000000E+00
  1.60000000E+01  1.00800000E+00  1.00800000E+00  0.00000000E+00  1.60000000E+01
  1.00800000E+00  1.00800000E+00  0.00000000E+00  1.60000000E+01  1.00800000E+00
  1.00800000E+00  0.00000000E+00  1.60000000E+01  1.00800000E+00  1.00800000E+00
  0.00000000E+00  1.60000000E+01  1.00800000E+00  1.00800000E+00  0.00000000E+00
  1.60000000E+01  1.00800000E+00  1.00800000E+00  0.00000000E+00  1.60000000E+01
  1.00800000E+00  1.00800000E+00  0.00000000E+00  1.60000000E+01  1.00800000E+00
  1.00800000E+00  0.00000000E+00  1.60000000E+01  1.00800000E+00  1.00800000E+00
  0.00000000E+00  1.60000000E+01  1.00800000E+00  1.00800000E+00  0.00000000E+00
  1.60000000E+01  1.00800000E+00  1.00800000E+00  0.00000000E+00  1.60000000E+01
  1.00800000E+00  1.00800000E+00  0.00000000E+00  1.60000000E+01  1.00800000E+00
  1.00800000E+00  0.00000000E+00  1.60000000E+01  1.00800000E+00  1.00800000E+00
  0.00000000E+00  1.60000000E+01  1.00800000E+00  1.00800000E+00  0.00000000E+00
  1.60000000E+01  1.00800000E+00  1.00800000E+00  0.00000000E+00  1.60000000E+01
  1.00800000E+00  1.00800000E+00  0.00000000E+00  1.60000000E+01  1.00800000E+00
  1.00800000E+00  0.00000000E+00  1.60000000E+01  1.00800000E+00  1.00800000E+00
  0.00000000E+00  1.60000000E+01  1.00800000E+00  1.00800000E+00  0.00000000E+00
  1.60000000E+01  1.00800000E+00  1.00800000E+00  0.00000000E+00  1.60000000E+01
  1.00800000E+00  1.00800000E+00  0.00000000E+00  1.60000000E+01  1.00800000E+00
  1.00800000E+00  0.00000000E+00  1.60000000E+01  1.00800000E+00  1.00800000E+00
  0.00000000E+00  1.60000000E+01  1.00800000E+00  1.00800000E+00  0.00000000E+00
  1.60000000E+01  1.00800000E+00  1.00800000E+00  0.00000000E+00  1.60000000E+01
  1.00800000E+00  1.00800000E+00  0.00000000E+00  1.60000000E+01  1.00800000E+00
  1.00800000E+00  0.00000000E+00  1.60000000E+01  1.00800000E+00  1.00800000E+00
  0.00000000E+00  1.60000000E+01  1.00800000E+00  1.00800000E+00  0.00000000E+00
  1.60000000E+01  1.00800000E+00  1.00800000E+00  0.00000000E+00  1.60000000E+01
  1.00800000E+00  1.00800000E+00  0.00000000E+00  1.60000000E+01  1.00800000E+00
  1.00800000E+00  0.00000000E+00  1.60000000E+01  1.00800000E+00  1.00800000E+00
  0.00000000E+00  1.60000000E+01  1.00800000E+00  1.00800000E+00  0.00000000E+00
  1.60000000E+01  1.00800000E+00  1.00800000E+00  0.00000000E+00  1.60000000E+01
  1.00800000E+00  1.00800000E+00  0.00000000E+00  1.60000000E+01  1.00800000E+00
  1.00800000E+00  0.00000000E+00  1.60000000E+01  1.00800000E+00  1.00800000E+00
  0.00000000E+00  1.60000000E+01  1.00800000E+00  1.00800000E+00  0.00000000E+00
  1.60000000E+01  1.00800000E+00  1.00800000E+00  0.00000000E+00  1.60000000E+01
  1.00800000E+00  1.00800000E+00  0.00000000E+00  1.60000000E+01  1.00800000E+00
  1.00800000E+00  0.00000000E+00  1.60000000E+01  1.00800000E+00  1.00800000E+00
  0.00000000E+00  1.60000000E+01  1.00800000E+00  1.00800000E+00  0.00000000E+00
  1.60000000E+01  1.00800000E+00  1.00800000E+00  0.00000000E+00  1.60000000E+01
  1.00800000E+00  1.00800000E+00  0.00000000E+00  1.60000000E+01  1.00800000E+00
  1.00800000E+00  0.00000000E+00  1.60000000E+01  1.00800000E+00  1.00800000E+00
  0.00000000E+00  1.60000000E+01  1.00800000E+00  1.00800000E+00  0.00000000E+00
  1.60000000E+01  1.00800000E+00  1.00800000E+00  0.00000000E+00  1.60000000E+01
  1.00800000E+00  1.00800000E+00  0.00000000E+00  1.60000000E+01  1.00800000E+00
  1.00800000E+00  0.00000000E+00  1.60000000E+01  1.00800000E+00  1.00800000E+00
  0.00000000E+00  1.60000000E+01  1.00800000E+00  1.00800000E+00  0.00000000E+00
  1.60000000E+01  1.00800000E+00  1.00800000E+00  0.00000000E+00  1.60000000E+01
  1.00800000E+00  1.00800000E+00  0.00000000E+00  1.60000000E+01  1.00800000E+00
  1.00800000E+00  0.00000000E+00  1.60000000E+01  1.00800000E+00  1.00800000E+00
  0.00000000E+00  1.60000000E+01  1.00800000E+00  1.00800000E+00  0.00000000E+00
  1.60000000E+01  1.00800000E+00  1.00800000E+00  0.00000000E+00  1.60000000E+01
  1.00800000E+00  1.00800000E+00  0.00000000E+00  1.60000000E+01  1.00800000E+00
  1.00800000E+00  0.00000000E+00  1.60000000E+01  1.00800000E+00  1.00800000E+00
  0.00000000E+00  1.60000000E+01  1.00800000E+00  1.00800000E+00  0.00000000E+00
  1.60000000E+01  1.00800000E+00  1.00800000E+00  0.00000000E+00  1.60000000E+01
  1.00800000E+00  1.00800000E+00  0.00000000E+00  1.60000000E+01  1.00800000E+00
  1.00800000E+00  0.00000000E+00  1.60000000E+01  1.00800000E+00  1.00800000E+00
  0.00000000E+00  1.60000000E+01  1.00800000E+00  1.00800000E+00  0.00000000E+00
  1.60000000E+01  1.00800000E+00  1.00800000E+00  0.00000000E+00  1.60000000E+01
  1.00800000E+00  1.00800000E+00  0.00000000E+00  1.60000000E+01  1.00800000E+00
  1.00800000E+00  0.00000000E+00  1.60000000E+01  1.00800000E+00  1.00800000E+00
  0.00000000E+00  1.60000000E+01  1.00800000E+00  1.00800000E+00  0.00000000E+00
  1.60000000E+01  1.00800000E+00  1.00800000E+00  0.00000000E+00  1.60000000E+01
  1.00800000E+00  1.00800000E+00  0.00000000E+00  1.60000000E+01  1.00800000E+00
  1.00800000E+00  0.00000000E+00  1.60000000E+01  1.00800000E+00  1.00800000E+00
  0.00000000E+00  1.60000000E+01  1.00800000E+00  1.00800000E+00  0.00000000E+00
  1.60000000E+01  1.00800000E+00  1.00800000E+00  0.00000000E+00  1.60000000E+01
  1.00800000E+00  1.00800000E+00  0.00000000E+00  1.60000000E+01  1.00800000E+00
  1.00800000E+00  0.00000000E+00  1.60000000E+01  1.00800000E+00  1.00800000E+00
  0.00000000E+00  1.60000000E+01  1.00800000E+00  1.00800000E+00  0.00000000E+00
  1.60000000E+01  1.00800000E+00  1.00800000E+00  0.00000000E+00  1.60000000E+01
  1.00800000E+00  1.00800000E+00  0.00000000E+00  1.60000000E+01  1.00800000E+00
  1.00800000E+00  0.00000000E+00  1.60000000E+01  1.00800000E+00  1.00800000E+00
  0.00000000E+00  1.60000000E+01  1.00800000E+00  1.00800000E+00  0.00000000E+00
  1.60000000E+01  1.00800000E+00  1.00800000E+00  0.00000000E+00  1.60000000E+01
  1.00800000E+00  1.00800000E+00  0.00000000E+00  1.60000000E+01  1.00800000E+00
  1.00800000E+00  0.00000000E+00  1.60000000E+01  1.00800000E+00  1.00800000E+00
  0.00000000E+00  1.60000000E+01  1.00800000E+00  1.00800000E+00  0.00000000E+00
  1.60000000E+01  1.00800000E+00  1.00800000E+00  0.00000000E+00  1.60000000E+01
  1.00800000E+00  1.00800000E+00  0.00000000E+00  1.60000000E+01  1.00800000E+00
  1.00800000E+00  0.00000000E+00  1.60000000E+01  1.00800000E+00  1.00800000E+00
  0.00000000E+00  1.60000000E+01  1.00800000E+00  1.00800000E+00  0.00000000E+00
  1.60000000E+01  1.00800000E+00  1.00800000E+00  0.00000000E+00  1.60000000E+01
  1.00800000E+00  1.00800000E+00  0.00000000E+00  1.60000000E+01  1.00800000E+00
  1.00800000E+00  0.00000000E+00  1.60000000E+01  1.00800000E+00  1.00800000E+00
  0.00000000E+00  1.60000000E+01  1.00800000E+00  1.00800000E+00  0.00000000E+00
  1.60000000E+01  1.00800000E+00  1.00800000E+00  0.00000000E+00  1.60000000E+01
  1.00800000E+00  1.00800000E+00  0.00000000E+00  1.60000000E+01  1.00800000E+00
  1.00800000E+00  0.00000000E+00  1.60000000E+01  1.00800000E+00  1.00800000E+00
  0.00000000E+00  1.60000000E+01  1.00800000E+00  1.00800000E+00  0.00000000E+00
  1.60000000E+01  1.00800000E+00  1.00800000E+00  0.00000000E+00  1.60000000E+01
  1.00800000E+00  1.00800000E+00  0.00000000E+00  1.60000000E+01  1.00800000E+00
  1.00800000E+00  0.00000000E+00  1.60000000E+01  1.00800000E+00  1.00800000E+00
  0.00000000E+00  1.60000000E+01  1.00800000E+00  1.00800000E+00  0.00000000E+00
  1.60000000E+01  1.00800000E+00  1.00800000E+00  0.00000000E+00  1.60000000E+01
  1.00800000E+00  1.00800000E+00  0.00000000E+00  1.60000000E+01  1.00800000E+00
  1.00800000E+00  0.00000000E+00  1.60000000E+01  1.00800000E+00  1.00800000E+00
  0.00000000E+00  1.60000000E+01  1.00800000E+00  1.00800000E+00  0.00000000E+00
  1.60000000E+01  1.00800000E+00  1.00800000E+00  0.00000000E+00  1.60000000E+01
  1.00800000E+00  1.00800000E+00  0.00000000E+00  1.60000000E+01  1.00800000E+00
  1.00800000E+00  0.00000000E+00  1.60000000E+01  1.00800000E+00  1.00800000E+00
  0.00000000E+00  1.60000000E+01  1.00800000E+00  1.00800000E+00  0.00000000E+00
  1.60000000E+01  1.00800000E+00  1.00800000E+00  0.00000000E+00  1.60000000E+01
  1.00800000E+00  1.00800000E+00  0.00000000E+00  1.60000000E+01  1.00800000E+00
  1.00800000E+00  0.00000000E+00  1.60000000E+01  1.00800000E+00  1.00800000E+00
  0.00000000E+00  1.60000000E+01  1.00800000E+00  1.00800000E+00  0.00000000E+00
  1.60000000E+01  1.00800000E+00  1.00800000E+00  0.00000000E+00  1.60000000E+01
  1.00800000E+00  1.00800000E+00  0.00000000E+00  1.60000000E+01  1.00800000E+00
  1.00800000E+00  0.00000000E+00  1.60000000E+01  1.00800000E+00  1.00800000E+00
  0.00000000E+00  1.60000000E+01  1.00800000E+00  1.00800000E+00  0.00000000E+00
  1.60000000E+01  1.00800000E+00  1.00800000E+00  0.00000000E+00  1.60000000E+01
  1.00800000E+00  1.00800000E+00  0.00000000E+00  1.60000000E+01  1.00800000E+00
  1.00800000E+00  0.00000000E+00  1.60000000E+01  1.00800000E+00  1.00800000E+00
  0.00000000E+00  1.60000000E+01  1.00800000E+00  1.00800000E+00  0.00000000E+00
  1.60000000E+01  1.00800000E+00  1.00800000E+00  0.00000000E+00  1.60000000E+01
  1.00800000E+00  1.00800000E+00  0.00000000E+00  1.60000000E+01  1.00800000E+00
  1.00800000E+00  0.00000000E+00  1.60000000E+01  1.00800000E+00  1.00800000E+00
  0.00000000E+00  1.60000000E+01  1.00800000E+00  1.00800000E+00  0.00000000E+00
  1.60000000E+01  1.00800000E+00  1.00800000E+00  0.00000000E+00  1.60000000E+01
  1.00800000E+00  1.00800000E+00  0.00000000E+00  1.60000000E+01  1.00800000E+00
  1.00800000E+00  0.00000000E+00  1.60000000E+01  1.00800000E+00  1.00800000E+00
  0.00000000E+00  1.60000000E+01  1.00800000E+00  1.00800000E+00  0.00000000E+00
  1.60000000E+01  1.00800000E+00  1.00800000E+00  0.00000000E+00  1.60000000E+01
  1.00800000E+00  1.00800000E+00  0.00000000E+00  1.60000000E+01  1.00800000E+00
  1.00800000E+00  0.00000000E+00  1.60000000E+01  1.00800000E+00  1.00800000E+00
  0.00000000E+00  1.60000000E+01  1.00800000E+00  1.00800000E+00  0.00000000E+00
  1.60000000E+01  1.00800000E+00  1.00800000E+00  0.00000000E+00  1.60000000E+01
  1.00800000E+00  1.00800000E+00  0.00000000E+00  1.60000000E+01  1.00800000E+00
  1.00800000E+00  0.00000000E+00  1.60000000E+01  1.00800000E+00  1.00800000E+00
  0.00000000E+00  1.60000000E+01  1.00800000E+00  1.00800000E+00  0.00000000E+00
  1.60000000E+01  1.00800000E+00  1.00800000E+00  0.00000000E+00  1.60000000E+01
  1.00800000E+00  1.00800000E+00  0.00000000E+00  1.60000000E+01  1.00800000E+00
  1.00800000E+00  0.00000000E+00  1.60000000E+01  1.00800000E+00  1.00800000E+00
  0.00000000E+00  1.60000000E+01  1.00800000E+00  1.00800000E+00  0.00000000E+00
  1.60000000E+01  1.00800000E+00  1.00800000E+00  0.00000000E+00  1.60000000E+01
  1.00800000E+00  1.00800000E+00  0.00000000E+00  1.60000000E+01  1.00800000E+00
  1.00800000E+00  0.00000000E+00  1.60000000E+01  1.00800000E+00  1.00800000E+00
  0.00000000E+00  1.60000000E+01  1.00800000E+00  1.00800000E+00  0.00000000E+00
  1.60000000E+01  1.00800000E+00  1.00800000E+00  0.00000000E+00  1.60000000E+01
  1.00800000E+00  1.00800000E+00  0.00000000E+00  1.60000000E+01  1.00800000E+00
  1.00800000E+00  0.00000000E+00  1.60000000E+01  1.00800000E+00  1.00800000E+00
  0.00000000E+00  1.60000000E+01  1.00800000E+00  1.00800000E+00  0.00000000E+00
  1.60000000E+01  1.00800000E+00  1.00800000E+00  0.00000000E+00  1.60000000E+01
  1.00800000E+00  1.00800000E+00  0.00000000E+00  1.60000000E+01  1.00800000E+00
  1.00800000E+00  0.00000000E+00  1.60000000E+01  1.00800000E+00  1.00800000E+00
  0.00000000E+00  1.60000000E+01  1.00800000E+00  1.00800000E+00  0.00000000E+00
  1.60000000E+01  1.00800000E+00  1.00800000E+00  0.00000000E+00  1.60000000E+01
  1.00800000E+00  1.00800000E+00  0.00000000E+00  1.60000000E+01  1.00800000E+00
  1.00800000E+00  0.00000000E+00  1.60000000E+01  1.00800000E+00  1.00800000E+00
  0.00000000E+00  1.60000000E+01  1.00800000E+00  1.00800000E+00  0.00000000E+00
  1.60000000E+01  1.00800000E+00  1.00800000E+00  0.00000000E+00  1.60000000E+01
  1.00800000E+00  1.00800000E+00  0.00000000E+00  1.60000000E+01  1.00800000E+00
  1.00800000E+00  0.00000000E+00  1.60000000E+01  1.00800000E+00  1.00800000E+00
  0.00000000E+00  1.60000000E+01  1.00800000E+00  1.00800000E+00  0.00000000E+00
  1.60000000E+01  1.00800000E+00  1.00800000E+00  0.00000000E+00  1.60000000E+01
  1.00800000E+00  1.00800000E+00  0.00000000E+00  1.60000000E+01  1.00800000E+00
  1.00800000E+00  0.00000000E+00  1.60000000E+01  1.00800000E+00  1.00800000E+00
  0.00000000E+00  1.60000000E+01  1.00800000E+00  1.00800000E+00  0.00000000E+00
  1.60000000E+01  1.00800000E+00  1.00800000E+00  0.00000000E+00  1.60000000E+01
  1.00800000E+00  1.00800000E+00  0.00000000E+00  1.60000000E+01  1.00800000E+00
  1.00800000E+00  0.00000000E+00  1.60000000E+01  1.00800000E+00  1.00800000E+00
  0.00000000E+00  1.60000000E+01  1.00800000E+00  1.00800000E+00  0.00000000E+00
  1.60000000E+01  1.00800000E+00  1.00800000E+00  0.00000000E+00  1.60000000E+01
  1.00800000E+00  1.00800000E+00  0.00000000E+00  1.60000000E+01  1.00800000E+00
  1.00800000E+00  0.00000000E+00  1.60000000E+01  1.00800000E+00  1.00800000E+00
  0.00000000E+00  1.60000000E+01  1.00800000E+00  1.00800000E+00  0.00000000E+00
  1.60000000E+01  1.00800000E+00  1.00800000E+00  0.00000000E+00  1.60000000E+01
  1.00800000E+00  1.00800000E+00  0.00000000E+00  1.60000000E+01  1.00800000E+00
  1.00800000E+00  0.00000000E+00  1.60000000E+01  1.00800000E+00  1.00800000E+00
  0.00000000E+00  1.60000000E+01  1.00800000E+00  1.00800000E+00  0.00000000E+00
  1.60000000E+01  1.00800000E+00  1.00800000E+00  0.00000000E+00  1.60000000E+01
  1.00800000E+00  1.00800000E+00  0.00000000E+00  1.60000000E+01  1.00800000E+00
  1.00800000E+00  0.00000000E+00  1.60000000E+01  1.00800000E+00  1.00800000E+00
  0.00000000E+00  1.60000000E+01  1.00800000E+00  1.00800000E+00  0.00000000E+00
  1.60000000E+01  1.00800000E+00  1.00800000E+00  0.00000000E+00  1.60000000E+01
  1.00800000E+00  1.00800000E+00  0.00000000E+00  1.60000000E+01  1.00800000E+00
  1.00800000E+00  0.00000000E+00  1.60000000E+01  1.00800000E+00  1.00800000E+00
  0.00000000E+00  1.60000000E+01  1.00800000E+00  1.00800000E+00  0.00000000E+00
  1.60000000E+01  1.00800000E+00  1.00800000E+00  0.00000000E+00  1.60000000E+01
  1.00800000E+00  1.00800000E+00  0.00000000E+00  1.60000000E+01  1.00800000E+00
  1.00800000E+00  0.00000000E+00  1.60000000E+01  1.00800000E+00  1.00800000E+00
  0.00000000E+00  1.60000000E+01  1.00800000E+00  1.00800000E+00  0.00000000E+00
  1.60000000E+01  1.00800000E+00  1.00800000E+00  0.00000000E+00  1.60000000E+01
  1.00800000E+00  1.00800000E+00  0.00000000E+00  1.60000000E+01  1.00800000E+00
  1.00800000E+00  0.00000000E+00  1.60000000E+01  1.00800000E+00  1.00800000E+00
  0.00000000E+00  1.60000000E+01  1.00800000E+00  1.00800000E+00  0.00000000E+00
  1.60000000E+01  1.00800000E+00  1.00800000E+00  0.00000000E+00  1.60000000E+01
  1.00800000E+00  1.00800000E+00  0.00000000E+00  1.60000000E+01  1.00800000E+00
  1.00800000E+00  0.00000000E+00  1.60000000E+01  1.00800000E+00  1.00800000E+00
  0.00000000E+00  1.60000000E+01  1.00800000E+00  1.00800000E+00  0.00000000E+00
  1.60000000E+01  1.00800000E+00  1.00800000E+00  0.00000000E+00  1.60000000E+01
  1.00800000E+00  1.00800000E+00  0.00000000E+00  1.60000000E+01  1.00800000E+00
  1.00800000E+00  0.00000000E+00  1.60000000E+01  1.00800000E+00  1.00800000E+00
  0.00000000E+00  1.60000000E+01  1.00800000E+00  1.00800000E+00  0.00000000E+00
  1.60000000E+01  1.00800000E+00  1.00800000E+00  0.00000000E+00  1.60000000E+01
  1.00800000E+00  1.00800000E+00  0.00000000E+00  1.60000000E+01  1.00800000E+00
  1.00800000E+00  0.00000000E+00  1.60000000E+01  1.00800000E+00  1.00800000E+00
  0.00000000E+00  1.60000000E+01  1.00800000E+00  1.00800000E+00  0.00000000E+00
  1.60000000E+01  1.00800000E+00  1.00800000E+00  0.00000000E+00  1.60000000E+01
  1.00800000E+00  1.00800000E+00  0.00000000E+00  1.60000000E+01  1.00800000E+00
  1.00800000E+00  0.00000000E+00  1.60000000E+01  1.00800000E+00  1.00800000E+00
  0.00000000E+00  1.60000000E+01  1.00800000E+00  1.00800000E+00  0.00000000E+00
  1.60000000E+01  1.00800000E+00  1.00800000E+00  0.00000000E+00  1.60000000E+01
  1.00800000E+00  1.00800000E+00  0.00000000E+00  1.60000000E+01  1.00800000E+00
  1.00800000E+00  0.00000000E+00  1.60000000E+01  1.00800000E+00  1.00800000E+00
  0.00000000E+00  1.60000000E+01  1.00800000E+00  1.00800000E+00  0.00000000E+00
  1.60000000E+01  1.00800000E+00  1.00800000E+00  0.00000000E+00  1.60000000E+01
  1.00800000E+00  1.00800000E+00  0.00000000E+00  1.60000000E+01  1.00800000E+00
  1.00800000E+00  0.00000000E+00  1.60000000E+01  1.00800000E+00  1.00800000E+00
  0.00000000E+00  1.60000000E+01  1.00800000E+00  1.00800000E+00  0.00000000E+00
  1.60000000E+01  1.00800000E+00  1.00800000E+00  0.00000000E+00  1.60000000E+01
  1.00800000E+00  1.00800000E+00  0.00000000E+00  1.60000000E+01  1.00800000E+00
  1.00800000E+00  0.00000000E+00  1.60000000E+01  1.00800000E+00  1.00800000E+00
  0.00000000E+00  1.60000000E+01  1.00800000E+00  1.00800000E+00  0.00000000E+00
  1.60000000E+01  1.00800000E+00  1.00800000E+00  0.00000000E+00  1.60000000E+01
  1.00800000E+00  1.00800000E+00  0.00000000E+00  1.60000000E+01  1.00800000E+00
  1.00800000E+00  0.00000000E+00  1.60000000E+01  1.00800000E+00  1.00800000E+00
  0.00000000E+00  1.60000000E+01  1.00800000E+00  1.00800000E+00  0.00000000E+00
  1.60000000E+01  1.00800000E+00  1.00800000E+00  0.00000000E+00  1.60000000E+01
  1.00800000E+00  1.00800000E+00  0.00000000E+00  1.60000000E+01  1.00800000E+00
  1.00800000E+00  0.00000000E+00  1.60000000E+01  1.00800000E+00  1.00800000E+00
  0.00000000E+00  1.60000000E+01  1.00800000E+00  1.00800000E+00  0.00000000E+00
  1.60000000E+01  1.00800000E+00  1.00800000E+00  0.00000000E+00  1.60000000E+01
  1.00800000E+00  1.00800000E+00  0.00000000E+00  1.60000000E+01  1.00800000E+00
  1.00800000E+00  0.00000000E+00  1.60000000E+01  1.00800000E+00  1.00800000E+00
  0.00000000E+00  1.60000000E+01  1.00800000E+00  1.00800000E+00  0.00000000E+00
  1.60000000E+01  1.00800000E+00  1.00800000E+00  0.00000000E+00  1.60000000E+01
  1.00800000E+00  1.00800000E+00  0.00000000E+00  1.60000000E+01  1.00800000E+00
  1.00800000E+00  0.00000000E+00  1.60000000E+01  1.00800000E+00  1.00800000E+00
  0.00000000E+00  1.60000000E+01  1.00800000E+00  1.00800000E+00  0.00000000E+00
  1.60000000E+01  1.00800000E+00  1.00800000E+00  0.00000000E+00  1.60000000E+01
  1.00800000E+00  1.00800000E+00  0.00000000E+00  1.60000000E+01  1.00800000E+00
  1.00800000E+00  0.00000000E+00  1.60000000E+01  1.00800000E+00  1.00800000E+00
  0.00000000E+00  1.60000000E+01  1.00800000E+00  1.00800000E+00  0.00000000E+00
  1.60000000E+01  1.00800000E+00  1.00800000E+00  0.00000000E+00  1.60000000E+01
  1.00800000E+00  1.00800000E+00  0.00000000E+00  1.60000000E+01  1.00800000E+00
  1.00800000E+00  0.00000000E+00  1.60000000E+01  1.00800000E+00  1.00800000E+00
  0.00000000E+00  1.60000000E+01  1.00800000E+00  1.00800000E+00  0.00000000E+00
  1.60000000E+01  1.00800000E+00  1.00800000E+00  0.00000000E+00  1.60000000E+01
  1.00800000E+00  1.00800000E+00  0.00000000E+00  1.60000000E+01  1.00800000E+00
  1.00800000E+00  0.00000000E+00  1.60000000E+01  1.00800000E+00  1.00800000E+00
  0.00000000E+00  1.60000000E+01  1.00800000E+00  1.00800000E+00  0.00000000E+00
  1.60000000E+01  1.00800000E+00  1.00800000E+00  0.00000000E+00  1.60000000E+01
  1.00800000E+00  1.00800000E+00  0.00000000E+00  1.60000000E+01  1.00800000E+00
  1.00800000E+00  0.00000000E+00  1.60000000E+01  1.00800000E+00  1.00800000E+00
  0.00000000E+00  1.60000000E+01  1.00800000E+00  1.00800000E+00  0.00000000E+00
  1.60000000E+01  1.00800000E+00  1.00800000E+00  0.00000000E+00  1.60000000E+01
  1.00800000E+00  1.00800000E+00  0.00000000E+00  1.60000000E+01  1.00800000E+00
  1.00800000E+00  0.00000000E+00  1.60000000E+01  1.00800000E+00  1.00800000E+00
  0.00000000E+00  1.60000000E+01  1.00800000E+00  1.00800000E+00  0.00000000E+00
  1.60000000E+01  1.00800000E+00  1.00800000E+00  0.00000000E+00  1.60000000E+01
  1.00800000E+00  1.00800000E+00  0.00000000E+00  1.60000000E+01  1.00800000E+00
  1.00800000E+00  0.00000000E+00  1.60000000E+01  1.00800000E+00  1.00800000E+00
  0.00000000E+00  1.60000000E+01  1.00800000E+00  1.00800000E+00  0.00000000E+00
  1.60000000E+01  1.00800000E+00  1.00800000E+00  0.00000000E+00  1.60000000E+01
  1.00800000E+00  1.00800000E+00  0.00000000E+00  1.60000000E+01  1.00800000E+00
  1.00800000E+00  0.00000000E+00  1.60000000E+01  1.00800000E+00  1.00800000E+00
  0.00000000E+00  1.60000000E+01  1.00800000E+00  1.00800000E+00  0.00000000E+00
  1.60000000E+01  1.00800000E+00  1.00800000E+00  0.00000000E+00  1.60000000E+01
  1.00800000E+00  1.00800000E+00  0.00000000E+00  1.60000000E+01  1.00800000E+00
  1.00800000E+00  0.00000000E+00  1.60000000E+01  1.00800000E+00  1.00800000E+00
  0.00000000E+00  1.60000000E+01  1.00800000E+00  1.00800000E+00  0.00000000E+00
  1.60000000E+01  1.00800000E+00  1.00800000E+00  0.00000000E+00  1.60000000E+01
  1.00800000E+00  1.00800000E+00  0.00000000E+00  1.60000000E+01  1.00800000E+00
  1.00800000E+00  0.00000000E+00  1.60000000E+01  1.00800000E+00  1.00800000E+00
  0.00000000E+00  1.60000000E+01  1.00800000E+00  1.00800000E+00  0.00000000E+00
  1.60000000E+01  1.00800000E+00  1.00800000E+00  0.00000000E+00  1.60000000E+01
  1.00800000E+00  1.00800000E+00  0.00000000E+00  1.60000000E+01  1.00800000E+00
  1.00800000E+00  0.00000000E+00  1.60000000E+01  1.00800000E+00  1.00800000E+00
  0.00000000E+00  1.60000000E+01  1.00800000E+00  1.00800000E+00  0.00000000E+00
  1.60000000E+01  1.00800000E+00  1.00800000E+00  0.00000000E+00  1.60000000E+01
  1.00800000E+00  1.00800000E+00  0.00000000E+00  1.60000000E+01  1.00800000E+00
  1.00800000E+00  0.00000000E+00  1.60000000E+01  1.00800000E+00  1.00800000E+00
  0.00000000E+00  1.60000000E+01  1.00800000E+00  1.00800000E+00  0.00000000E+00
  1.60000000E+01  1.00800000E+00  1.00800000E+00  0.00000000E+00  1.60000000E+01
  1.00800000E+00  1.00800000E+00  0.00000000E+00  1.60000000E+01  1.00800000E+00
  1.00800000E+00  0.00000000E+00  1.60000000E+01  1.00800000E+00  1.00800000E+00
  0.00000000E+00  1.60000000E+01  1.00800000E+00  1.00800000E+00  0.00000000E+00
  1.60000000E+01  1.00800000E+00  1.00800000E+00  0.00000000E+00  1.60000000E+01
  1.00800000E+00  1.00800000E+00  0.00000000E+00  1.60000000E+01  1.00800000E+00
  1.00800000E+00  0.00000000E+00  1.60000000E+01  1.00800000E+00  1.00800000E+00
  0.00000000E+00  1.60000000E+01  1.00800000E+00  1.00800000E+00  0.00000000E+00
  1.60000000E+01  1.00800000E+00  1.00800000E+00  0.00000000E+00  1.60000000E+01
  1.00800000E+00  1.00800000E+00  0.00000000E+00  1.60000000E+01  1.00800000E+00
  1.00800000E+00  0.00000000E+00  1.60000000E+01  1.00800000E+00  1.00800000E+00
  0.00000000E+00  1.60000000E+01  1.00800000E+00  1.00800000E+00  0.00000000E+00
  1.60000000E+01  1.00800000E+00  1.00800000E+00  0.00000000E+00  1.60000000E+01
  1.00800000E+00  1.00800000E+00  0.00000000E+00  1.60000000E+01  1.00800000E+00
  1.00800000E+00  0.00000000E+00  1.60000000E+01  1.00800000E+00  1.00800000E+00
  0.00000000E+00  1.60000000E+01  1.00800000E+00  1.00800000E+00  0.00000000E+00
  1.60000000E+01  1.00800000E+00  1.00800000E+00  0.00000000E+00  1.60000000E+01
  1.00800000E+00  1.00800000E+00  0.00000000E+00  1.60000000E+01  1.00800000E+00
  1.00800000E+00  0.00000000E+00  1.60000000E+01  1.00800000E+00  1.00800000E+00
  0.00000000E+00  1.60000000E+01  1.00800000E+00  1.00800000E+00  0.00000000E+00
  1.60000000E+01  1.00800000E+00  1.00800000E+00  0.00000000E+00  1.60000000E+01
  1.00800000E+00  1.00800000E+00  0.00000000E+00  1.60000000E+01  1.00800000E+00
  1.00800000E+00  0.00000000E+00  1.60000000E+01  1.00800000E+00  1.00800000E+00
  0.00000000E+00  1.60000000E+01  1.00800000E+00  1.00800000E+00  0.00000000E+00
  1.60000000E+01  1.00800000E+00  1.00800000E+00  0.00000000E+00  1.60000000E+01
  1.00800000E+00  1.00800000E+00  0.00000000E+00  1.60000000E+01  1.00800000E+00
  1.00800000E+00  0.00000000E+00  1.60000000E+01  1.00800000E+00  1.00800000E+00
  0.00000000E+00  1.60000000E+01  1.00800000E+00  1.00800000E+00  0.00000000E+00
  1.60000000E+01  1.00800000E+00  1.00800000E+00  0.00000000E+00  1.60000000E+01
  1.00800000E+00  1.00800000E+00  0.00000000E+00  1.60000000E+01  1.00800000E+00
  1.00800000E+00  0.00000000E+00  1.60000000E+01  1.00800000E+00  1.00800000E+00
  0.00000000E+00  1.60000000E+01  1.00800000E+00  1.00800000E+00  0.00000000E+00
  1.60000000E+01  1.00800000E+00  1.00800000E+00  0.00000000E+00  1.60000000E+01
  1.00800000E+00  1.00800000E+00  0.00000000E+00  1.60000000E+01  1.00800000E+00
  1.00800000E+00  0.00000000E+00  1.60000000E+01  1.00800000E+00  1.00800000E+00
  0.00000000E+00  1.60000000E+01  1.00800000E+00  1.00800000E+00  0.00000000E+00
  1.60000000E+01  1.00800000E+00  1.00800000E+00  0.00000000E+00  1.60000000E+01
  1.00800000E+00  1.00800000E+00  0.00000000E+00  1.60000000E+01  1.00800000E+00
  1.00800000E+00  0.00000000E+00  1.60000000E+01  1.00800000E+00  1.00800000E+00
  0.00000000E+00  1.60000000E+01  1.00800000E+00  1.00800000E+00  0.00000000E+00
  1.60000000E+01  1.00800000E+00  1.00800000E+00  0.00000000E+00  1.60000000E+01
  1.00800000E+00  1.00800000E+00  0.00000000E+00  1.60000000E+01  1.00800000E+00
  1.00800000E+00  0.00000000E+00  1.60000000E+01  1.00800000E+00  1.00800000E+00
  0.00000000E+00  1.60000000E+01  1.00800000E+00  1.00800000E+00  0.00000000E+00
  1.60000000E+01  1.00800000E+00  1.00800000E+00  0.00000000E+00  1.60000000E+01
  1.00800000E+00  1.00800000E+00  0.00000000E+00  1.60000000E+01  1.00800000E+00
  1.00800000E+00  0.00000000E+00  1.60000000E+01  1.00800000E+00  1.00800000E+00
  0.00000000E+00  1.60000000E+01  1.00800000E+00  1.00800000E+00  0.00000000E+00
  1.60000000E+01  1.00800000E+00  1.00800000E+00  0.00000000E+00  1.60000000E+01
  1.00800000E+00  1.00800000E+00  0.00000000E+00  1.60000000E+01  1.00800000E+00
  1.00800000E+00  0.00000000E+00  1.60000000E+01  1.00800000E+00  1.00800000E+00
  0.00000000E+00  1.60000000E+01  1.00800000E+00  1.00800000E+00  0.00000000E+00
  1.60000000E+01  1.00800000E+00  1.00800000E+00  0.00000000E+00  1.60000000E+01
  1.00800000E+00  1.00800000E+00  0.00000000E+00  1.60000000E+01  1.00800000E+00
  1.00800000E+00  0.00000000E+00  1.60000000E+01  1.00800000E+00  1.00800000E+00
  0.00000000E+00  1.60000000E+01  1.00800000E+00  1.00800000E+00  0.00000000E+00
  1.60000000E+01  1.00800000E+00  1.00800000E+00  0.00000000E+00  1.60000000E+01
  1.00800000E+00  1.00800000E+00  0.00000000E+00  1.60000000E+01  1.00800000E+00
  1.00800000E+00  0.00000000E+00  1.60000000E+01  1.00800000E+00  1.00800000E+00
  0.00000000E+00  1.60000000E+01  1.00800000E+00  1.00800000E+00  0.00000000E+00
  1.60000000E+01  1.00800000E+00  1.00800000E+00  0.00000000E+00  1.60000000E+01
  1.00800000E+00  1.00800000E+00  0.00000000E+00  1.60000000E+01  1.00800000E+00
  1.00800000E+00  0.00000000E+00  1.60000000E+01  1.00800000E+00  1.00800000E+00
  0.00000000E+00  1.60000000E+01  1.00800000E+00  1.00800000E+00  0.00000000E+00
  1.60000000E+01  1.00800000E+00  1.00800000E+00  0.00000000E+00  1.60000000E+01
  1.00800000E+00  1.00800000E+00  0.00000000E+00  1.60000000E+01  1.00800000E+00
  1.00800000E+00  0.00000000E+00  1.60000000E+01  1.00800000E+00  1.00800000E+00
  0.00000000E+00  1.60000000E+01  1.00800000E+00  1.00800000E+00  0.00000000E+00
  1.60000000E+01  1.00800000E+00  1.00800000E+00  0.00000000E+00  1.60000000E+01
  1.00800000E+00  1.00800000E+00  0.00000000E+00  1.60000000E+01  1.00800000E+00
  1.00800000E+00  0.00000000E+00  1.60000000E+01  1.00800000E+00  1.00800000E+00
  0.00000000E+00  1.60000000E+01  1.00800000E+00  1.00800000E+00  0.00000000E+00
  1.60000000E+01  1.00800000E+00  1.00800000E+00  0.00000000E+00  1.60000000E+01
  1.00800000E+00  1.00800000E+00  0.00000000E+00  1.60000000E+01  1.00800000E+00
  1.00800000E+00  0.00000000E+00  1.60000000E+01  1.00800000E+00  1.00800000E+00
  0.00000000E+00  1.60000000E+01  1.00800000E+00  1.00800000E+00  0.00000000E+00
  1.60000000E+01  1.00800000E+00  1.00800000E+00  0.00000000E+00  1.60000000E+01
  1.00800000E+00  1.00800000E+00  0.00000000E+00  1.60000000E+01  1.00800000E+00
  1.00800000E+00  0.00000000E+00  1.60000000E+01  1.00800000E+00  1.00800000E+00
  0.00000000E+00  1.60000000E+01  1.00800000E+00  1.00800000E+00  0.00000000E+00
  1.60000000E+01  1.00800000E+00  1.00800000E+00  0.00000000E+00  1.60000000E+01
  1.00800000E+00  1.00800000E+00  0.00000000E+00  1.60000000E+01  1.00800000E+00
  1.00800000E+00  0.00000000E+00  1.60000000E+01  1.00800000E+00  1.00800000E+00
  0.00000000E+00  1.60000000E+01  1.00800000E+00  1.00800000E+00  0.00000000E+00
  1.60000000E+01  1.00800000E+00  1.00800000E+00  0.00000000E+00  1.60000000E+01
  1.00800000E+00  1.00800000E+00  0.00000000E+00  1.60000000E+01  1.00800000E+00
  1.00800000E+00  0.00000000E+00  1.60000000E+01  1.00800000E+00  1.00800000E+00
  0.00000000E+00  1.60000000E+01  1.00800000E+00  1.00800000E+00  0.00000000E+00
  1.60000000E+01  1.00800000E+00  1.00800000E+00  0.00000000E+00  1.60000000E+01
  1.00800000E+00  1.00800000E+00  0.00000000E+00  1.60000000E+01  1.00800000E+00
  1.00800000E+00  0.00000000E+00  1.60000000E+01  1.00800000E+00  1.00800000E+00
  0.00000000E+00  1.60000000E+01  1.00800000E+00  1.00800000E+00  0.00000000E+00
  1.60000000E+01  1.00800000E+00  1.00800000E+00  0.00000000E+00  1.60000000E+01
  1.00800000E+00  1.00800000E+00  0.00000000E+00  1.60000000E+01  1.00800000E+00
  1.00800000E+00  0.00000000E+00  1.60000000E+01  1.00800000E+00  1.00800000E+00
  0.00000000E+00  1.60000000E+01  1.00800000E+00  1.00800000E+00  0.00000000E+00
  1.60000000E+01  1.00800000E+00  1.00800000E+00  0.00000000E+00  1.60000000E+01
  1.00800000E+00  1.00800000E+00  0.00000000E+00  1.60000000E+01  1.00800000E+00
  1.00800000E+00  0.00000000E+00  1.60000000E+01  1.00800000E+00  1.00800000E+00
  0.00000000E+00  1.60000000E+01  1.00800000E+00  1.00800000E+00  0.00000000E+00
  1.60000000E+01  1.00800000E+00  1.00800000E+00  0.00000000E+00  1.60000000E+01
  1.00800000E+00  1.00800000E+00  0.00000000E+00  1.60000000E+01  1.00800000E+00
  1.00800000E+00  0.00000000E+00  1.60000000E+01  1.00800000E+00  1.00800000E+00
  0.00000000E+00  1.60000000E+01  1.00800000E+00  1.00800000E+00  0.00000000E+00
  1.60000000E+01  1.00800000E+00  1.00800000E+00  0.00000000E+00  1.60000000E+01
  1.00800000E+00  1.00800000E+00  0.00000000E+00  1.60000000E+01  1.00800000E+00
  1.00800000E+00  0.00000000E+00  1.60000000E+01  1.00800000E+00  1.00800000E+00
  0.00000000E+00  1.60000000E+01  1.00800000E+00  1.00800000E+00  0.00000000E+00
  1.60000000E+01  1.00800000E+00  1.00800000E+00  0.00000000E+00  1.60000000E+01
  1.00800000E+00  1.00800000E+00  0.00000000E+00  1.60000000E+01  1.00800000E+00
  1.00800000E+00  0.00000000E+00  1.60000000E+01  1.00800000E+00  1.00800000E+00
  0.00000000E+00  1.60000000E+01  1.00800000E+00  1.00800000E+00  0.00000000E+00
  1.60000000E+01  1.00800000E+00  1.00800000E+00  0.00000000E+00  1.60000000E+01
  1.00800000E+00  1.00800000E+00  0.00000000E+00  1.60000000E+01  1.00800000E+00
  1.00800000E+00  0.00000000E+00  1.60000000E+01  1.00800000E+00  1.00800000E+00
  0.00000000E+00  1.60000000E+01  1.00800000E+00  1.00800000E+00  0.00000000E+00
  1.60000000E+01  1.00800000E+00  1.00800000E+00  0.00000000E+00  1.60000000E+01
  1.00800000E+00  1.00800000E+00  0.00000000E+00  1.60000000E+01  1.00800000E+00
  1.00800000E+00  0.00000000E+00  1.60000000E+01  1.00800000E+00  1.00800000E+00
  0.00000000E+00  1.60000000E+01  1.00800000E+00  1.00800000E+00  0.00000000E+00
  1.60000000E+01  1.00800000E+00  1.00800000E+00  0.00000000E+00  1.60000000E+01
  1.00800000E+00  1.00800000E+00  0.00000000E+00  1.60000000E+01  1.00800000E+00
  1.00800000E+00  0.00000000E+00  1.60000000E+01  1.00800000E+00  1.00800000E+00
  0.00000000E+00  1.60000000E+01  1.00800000E+00  1.00800000E+00  0.00000000E+00
  1.60000000E+01  1.00800000E+00  1.00800000E+00  0.00000000E+00  1.60000000E+01
  1.00800000E+00  1.00800000E+00  0.00000000E+00  1.60000000E+01  1.00800000E+00
  1.00800000E+00  0.00000000E+00  1.60000000E+01  1.00800000E+00  1.00800000E+00
  0.00000000E+00  1.60000000E+01  1.00800000E+00  1.00800000E+00  0.00000000E+00
  1.60000000E+01  1.00800000E+00  1.00800000E+00  0.00000000E+00  1.60000000E+01
  1.00800000E+00  1.00800000E+00  0.00000000E+00  1.60000000E+01  1.00800000E+00
  1.00800000E+00  0.00000000E+00  1.60000000E+01  1.00800000E+00  1.00800000E+00
  0.00000000E+00  1.60000000E+01  1.00800000E+00  1.00800000E+00  0.00000000E+00
  1.60000000E+01  1.00800000E+00  1.00800000E+00  0.00000000E+00  1.60000000E+01
  1.00800000E+00  1.00800000E+00  0.00000000E+00  1.60000000E+01  1.00800000E+00
  1.00800000E+00  0.00000000E+00  1.60000000E+01  1.00800000E+00  1.00800000E+00
  0.00000000E+00  1.60000000E+01  1.00800000E+00  1.00800000E+00  0.00000000E+00
  1.60000000E+01  1.00800000E+00  1.00800000E+00  0.00000000E+00  1.60000000E+01
  1.00800000E+00  1.00800000E+00  0.00000000E+00  1.60000000E+01  1.00800000E+00
  1.00800000E+00  0.00000000E+00  1.60000000E+01  1.00800000E+00  1.00800000E+00
  0.00000000E+00  1.60000000E+01  1.00800000E+00  1.00800000E+00  0.00000000E+00
  1.60000000E+01  1.00800000E+00  1.00800000E+00  0.00000000E+00  1.60000000E+01
  1.00800000E+00  1.00800000E+00  0.00000000E+00  1.60000000E+01  1.00800000E+00
  1.00800000E+00  0.00000000E+00  1.60000000E+01  1.00800000E+00  1.00800000E+00
  0.00000000E+00  1.60000000E+01  1.00800000E+00  1.00800000E+00  0.00000000E+00
  1.60000000E+01  1.00800000E+00  1.00800000E+00  0.00000000E+00  1.60000000E+01
  1.00800000E+00  1.00800000E+00  0.00000000E+00  1.60000000E+01  1.00800000E+00
  1.00800000E+00  0.00000000E+00  1.60000000E+01  1.00800000E+00  1.00800000E+00
  0.00000000E+00  1.60000000E+01  1.00800000E+00  1.00800000E+00  0.00000000E+00
  1.60000000E+01  1.00800000E+00  1.00800000E+00  0.00000000E+00  1.60000000E+01
  1.00800000E+00  1.00800000E+00  0.00000000E+00  1.60000000E+01  1.00800000E+00
  1.00800000E+00  0.00000000E+00  1.60000000E+01  1.00800000E+00  1.00800000E+00
  0.00000000E+00  1.60000000E+01  1.00800000E+00  1.00800000E+00  0.00000000E+00
  1.60000000E+01  1.00800000E+00  1.00800000E+00  0.00000000E+00  1.60000000E+01
  1.00800000E+00  1.00800000E+00  0.00000000E+00  1.60000000E+01  1.00800000E+00
  1.00800000E+00  0.00000000E+00  1.60000000E+01  1.00800000E+00  1.00800000E+00
  0.00000000E+00  1.60000000E+01  1.00800000E+00  1.00800000E+00  0.00000000E+00
  1.60000000E+01  1.00800000E+00  1.00800000E+00  0.00000000E+00  1.60000000E+01
  1.00800000E+00  1.00800000E+00  0.00000000E+00  1.60000000E+01  1.00800000E+00
  1.00800000E+00  0.00000000E+00  1.60000000E+01  1.00800000E+00  1.00800000E+00
  0.00000000E+00  1.60000000E+01  1.00800000E+00  1.00800000E+00  0.00000000E+00
  1.60000000E+01  1.00800000E+00  1.00800000E+00  0.00000000E+00  1.60000000E+01
  1.00800000E+00  1.00800000E+00  0.00000000E+00  1.60000000E+01  1.00800000E+00
  1.00800000E+00  0.00000000E+00  1.60000000E+01  1.00800000E+00  1.00800000E+00
  0.00000000E+00  1.60000000E+01  1.00800000E+00  1.00800000E+00  0.00000000E+00
  1.60000000E+01  1.00800000E+00  1.00800000E+00  0.00000000E+00  1.60000000E+01
  1.00800000E+00  1.00800000E+00  0.00000000E+00  1.60000000E+01  1.00800000E+00
  1.00800000E+00  0.00000000E+00  1.60000000E+01  1.00800000E+00  1.00800000E+00
  0.00000000E+00  1.60000000E+01  1.00800000E+00  1.00800000E+00  0.00000000E+00
  1.60000000E+01  1.00800000E+00  1.00800000E+00  0.00000000E+00  1.60000000E+01
  1.00800000E+00  1.00800000E+00  0.00000000E+00  1.60000000E+01  1.00800000E+00
  1.00800000E+00  0.00000000E+00  1.60000000E+01  1.00800000E+00  1.00800000E+00
  0.00000000E+00  1.60000000E+01  1.00800000E+00  1.00800000E+00  0.00000000E+00
  1.60000000E+01  1.00800000E+00  1.00800000E+00  0.00000000E+00  1.60000000E+01
  1.00800000E+00  1.00800000E+00  0.00000000E+00  1.60000000E+01  1.00800000E+00
  1.00800000E+00  0.00000000E+00  1.60000000E+01  1.00800000E+00  1.00800000E+00
  0.00000000E+00  1.60000000E+01  1.00800000E+00  1.00800000E+00  0.00000000E+00
  1.60000000E+01  1.00800000E+00  1.00800000E+00  0.00000000E+00  1.60000000E+01
  1.00800000E+00  1.00800000E+00  0.00000000E+00  1.60000000E+01  1.00800000E+00
  1.00800000E+00  0.00000000E+00  1.60000000E+01  1.00800000E+00  1.00800000E+00
  0.00000000E+00  1.60000000E+01  1.00800000E+00  1.00800000E+00  0.00000000E+00
  1.60000000E+01  1.00800000E+00  1.00800000E+00  0.00000000E+00  1.60000000E+01
  1.00800000E+00  1.00800000E+00  0.00000000E+00  1.60000000E+01  1.00800000E+00
  1.00800000E+00  0.00000000E+00  1.60000000E+01  1.00800000E+00  1.00800000E+00
  0.00000000E+00  1.60000000E+01  1.00800000E+00  1.00800000E+00  0.00000000E+00
  1.60000000E+01  1.00800000E+00  1.00800000E+00  0.00000000E+00  1.60000000E+01
  1.00800000E+00  1.00800000E+00  0.00000000E+00  1.60000000E+01  1.00800000E+00
  1.00800000E+00  0.00000000E+00  1.60000000E+01  1.00800000E+00  1.00800000E+00
  0.00000000E+00  1.60000000E+01  1.00800000E+00  1.00800000E+00  0.00000000E+00
  1.60000000E+01  1.00800000E+00  1.00800000E+00  0.00000000E+00  1.60000000E+01
  1.00800000E+00  1.00800000E+00  0.00000000E+00  1.60000000E+01  1.00800000E+00
  1.00800000E+00  0.00000000E+00  1.60000000E+01  1.00800000E+00  1.00800000E+00
  0.00000000E+00  1.60000000E+01  1.00800000E+00  1.00800000E+00  0.00000000E+00
  1.60000000E+01  1.00800000E+00  1.00800000E+00  0.00000000E+00  1.60000000E+01
  1.00800000E+00  1.00800000E+00  0.00000000E+00  1.60000000E+01  1.00800000E+00
  1.00800000E+00  0.00000000E+00  1.60000000E+01  1.00800000E+00  1.00800000E+00
  0.00000000E+00  1.60000000E+01  1.00800000E+00  1.00800000E+00  0.00000000E+00
  1.60000000E+01  1.00800000E+00  1.00800000E+00  0.00000000E+00  1.60000000E+01
  1.00800000E+00  1.00800000E+00  0.00000000E+00  1.60000000E+01  1.00800000E+00
  1.00800000E+00  0.00000000E+00  1.60000000E+01  1.00800000E+00  1.00800000E+00
  0.00000000E+00  1.60000000E+01  1.00800000E+00  1.00800000E+00  0.00000000E+00
  1.60000000E+01  1.00800000E+00  1.00800000E+00  0.00000000E+00  1.60000000E+01
  1.00800000E+00  1.00800000E+00  0.00000000E+00  1.60000000E+01  1.00800000E+00
  1.00800000E+00  0.00000000E+00  1.60000000E+01  1.00800000E+00  1.00800000E+00
  0.00000000E+00  1.60000000E+01  1.00800000E+00  1.00800000E+00  0.00000000E+00
  1.60000000E+01  1.00800000E+00  1.00800000E+00  0.00000000E+00  1.60000000E+01
  1.00800000E+00  1.00800000E+00  0.00000000E+00  1.60000000E+01  1.00800000E+00
  1.00800000E+00  0.00000000E+00  1.60000000E+01  1.00800000E+00  1.00800000E+00
  0.00000000E+00  1.60000000E+01  1.00800000E+00  1.00800000E+00  0.00000000E+00
  1.60000000E+01  1.00800000E+00  1.00800000E+00  0.00000000E+00  1.60000000E+01
  1.00800000E+00  1.00800000E+00  0.00000000E+00  1.60000000E+01  1.00800000E+00
  1.00800000E+00  0.00000000E+00  1.60000000E+01  1.00800000E+00  1.00800000E+00
  0.00000000E+00  1.60000000E+01  1.00800000E+00  1.00800000E+00  0.00000000E+00
  1.60000000E+01  1.00800000E+00  1.00800000E+00  0.00000000E+00  1.60000000E+01
  1.00800000E+00  1.00800000E+00  0.00000000E+00  1.60000000E+01  1.00800000E+00
  1.00800000E+00  0.00000000E+00  1.60000000E+01  1.00800000E+00  1.00800000E+00
  0.00000000E+00  1.60000000E+01  1.00800000E+00  1.00800000E+00  0.00000000E+00
  1.60000000E+01  1.00800000E+00  1.00800000E+00  0.00000000E+00  1.60000000E+01
  1.00800000E+00  1.00800000E+00  0.00000000E+00  1.60000000E+01  1.00800000E+00
  1.00800000E+00  0.00000000E+00  1.60000000E+01  1.00800000E+00  1.00800000E+00
  0.00000000E+00  1.60000000E+01  1.00800000E+00  1.00800000E+00  0.00000000E+00
  1.60000000E+01  1.00800000E+00  1.00800000E+00  0.00000000E+00  1.60000000E+01
  1.00800000E+00  1.00800000E+00  0.00000000E+00  1.60000000E+01  1.00800000E+00
  1.00800000E+00  0.00000000E+00  1.60000000E+01  1.00800000E+00  1.00800000E+00
  0.00000000E+00  1.60000000E+01  1.00800000E+00  1.00800000E+00  0.00000000E+00
  1.60000000E+01  1.00800000E+00  1.00800000E+00  0.00000000E+00  1.60000000E+01
  1.00800000E+00  1.00800000E+00  0.00000000E+00  1.60000000E+01  1.00800000E+00
  1.00800000E+00  0.00000000E+00  1.60000000E+01  1.00800000E+00  1.00800000E+00
  0.00000000E+00  1.60000000E+01  1.00800000E+00  1.00800000E+00  0.00000000E+00
  1.60000000E+01  1.00800000E+00  1.00800000E+00  0.00000000E+00  1.60000000E+01
  1.00800000E+00  1.00800000E+00  0.00000000E+00  1.60000000E+01  1.00800000E+00
  1.00800000E+00  0.00000000E+00  1.60000000E+01  1.00800000E+00  1.00800000E+00
  0.00000000E+00  1.60000000E+01  1.00800000E+00  1.00800000E+00  0.00000000E+00
  1.60000000E+01  1.00800000E+00  1.00800000E+00  0.00000000E+00  1.60000000E+01
  1.00800000E+00  1.00800000E+00  0.00000000E+00  1.60000000E+01  1.00800000E+00
  1.00800000E+00  0.00000000E+00  1.60000000E+01  1.00800000E+00  1.00800000E+00
  0.00000000E+00  1.60000000E+01  1.00800000E+00  1.00800000E+00  0.00000000E+00
  1.60000000E+01  1.00800000E+00  1.00800000E+00  0.00000000E+00  1.60000000E+01
  1.00800000E+00  1.00800000E+00  0.00000000E+00  1.60000000E+01  1.00800000E+00
  1.00800000E+00  0.00000000E+00  1.60000000E+01  1.00800000E+00  1.00800000E+00
  0.00000000E+00  1.60000000E+01  1.00800000E+00  1.00800000E+00  0.00000000E+00
  1.60000000E+01  1.00800000E+00  1.00800000E+00  0.00000000E+00  1.60000000E+01
  1.00800000E+00  1.00800000E+00  0.00000000E+00  1.60000000E+01  1.00800000E+00
  1.00800000E+00  0.00000000E+00  1.60000000E+01  1.00800000E+00  1.00800000E+00
  0.00000000E+00  1.60000000E+01  1.00800000E+00  1.00800000E+00  0.00000000E+00
  1.60000000E+01  1.00800000E+00  1.00800000E+00  0.00000000E+00  1.60000000E+01
  1.00800000E+00  1.00800000E+00  0.00000000E+00  1.60000000E+01  1.00800000E+00
  1.00800000E+00  0.00000000E+00  1.60000000E+01  1.00800000E+00  1.00800000E+00
  0.00000000E+00  1.60000000E+01  1.00800000E+00  1.00800000E+00  0.00000000E+00
  1.60000000E+01  1.00800000E+00  1.00800000E+00  0.00000000E+00  1.60000000E+01
  1.00800000E+00  1.00800000E+00  0.00000000E+00  1.60000000E+01  1.00800000E+00
  1.00800000E+00  0.00000000E+00  1.60000000E+01  1.00800000E+00  1.00800000E+00
  0.00000000E+00  1.60000000E+01  1.00800000E+00  1.00800000E+00  0.00000000E+00
  1.60000000E+01  1.00800000E+00  1.00800000E+00  0.00000000E+00  1.60000000E+01
  1.00800000E+00  1.00800000E+00  0.00000000E+00  1.60000000E+01  1.00800000E+00
  1.00800000E+00  0.00000000E+00  1.60000000E+01  1.00800000E+00  1.00800000E+00
  0.00000000E+00  1.60000000E+01  1.00800000E+00  1.00800000E+00  0.00000000E+00
  1.60000000E+01  1.00800000E+00  1.00800000E+00  0.00000000E+00  1.60000000E+01
  1.00800000E+00  1.00800000E+00  0.00000000E+00  1.60000000E+01  1.00800000E+00
  1.00800000E+00  0.00000000E+00  1.60000000E+01  1.00800000E+00  1.00800000E+00
  0.00000000E+00  1.60000000E+01  1.00800000E+00  1.00800000E+00  0.00000000E+00
  1.60000000E+01  1.00800000E+00  1.00800000E+00  0.00000000E+00  1.60000000E+01
  1.00800000E+00  1.00800000E+00  0.00000000E+00  1.60000000E+01  1.00800000E+00
  1.00800000E+00  0.00000000E+00  1.60000000E+01  1.00800000E+00  1.00800000E+00
  0.00000000E+00  1.60000000E+01  1.00800000E+00  1.00800000E+00  0.00000000E+00
  1.60000000E+01  1.00800000E+00  1.00800000E+00  0.00000000E+00  1.60000000E+01
  1.00800000E+00  1.00800000E+00  0.00000000E+00  1.60000000E+01  1.00800000E+00
  1.00800000E+00  0.00000000E+00  1.60000000E+01  1.00800000E+00  1.00800000E+00
  0.00000000E+00  1.60000000E+01  1.00800000E+00  1.00800000E+00  0.00000000E+00
  1.60000000E+01  1.00800000E+00  1.00800000E+00  0.00000000E+00  1.60000000E+01
  1.00800000E+00  1.00800000E+00  0.00000000E+00  1.60000000E+01  1.00800000E+00
  1.00800000E+00  0.00000000E+00  1.60000000E+01  1.00800000E+00  1.00800000E+00
  0.00000000E+00  1.60000000E+01  1.00800000E+00  1.00800000E+00  0.00000000E+00
  1.60000000E+01  1.00800000E+00  1.00800000E+00  0.00000000E+00  1.60000000E+01
  1.00800000E+00  1.00800000E+00  0.00000000E+00  1.60000000E+01  1.00800000E+00
  1.00800000E+00  0.00000000E+00  1.60000000E+01  1.00800000E+00  1.00800000E+00
  0.00000000E+00  1.60000000E+01  1.00800000E+00  1.00800000E+00  0.00000000E+00
  1.60000000E+01  1.00800000E+00  1.00800000E+00  0.00000000E+00  1.60000000E+01
  1.00800000E+00  1.00800000E+00  0.00000000E+00  1.60000000E+01  1.00800000E+00
  1.00800000E+00  0.00000000E+00  1.60000000E+01  1.00800000E+00  1.00800000E+00
  0.00000000E+00  1.60000000E+01  1.00800000E+00  1.00800000E+00  0.00000000E+00
  1.60000000E+01  1.00800000E+00  1.00800000E+00  0.00000000E+00  1.60000000E+01
  1.00800000E+00  1.00800000E+00  0.00000000E+00  1.60000000E+01  1.00800000E+00
  1.00800000E+00  0.00000000E+00  1.60000000E+01  1.00800000E+00  1.00800000E+00
  0.00000000E+00  1.60000000E+01  1.00800000E+00  1.00800000E+00  0.00000000E+00
  1.60000000E+01  1.00800000E+00  1.00800000E+00  0.00000000E+00  1.60000000E+01
  1.00800000E+00  1.00800000E+00  0.00000000E+00  1.60000000E+01  1.00800000E+00
  1.00800000E+00  0.00000000E+00  1.60000000E+01  1.00800000E+00  1.00800000E+00
  0.00000000E+00  1.60000000E+01  1.00800000E+00  1.00800000E+00  0.00000000E+00
  1.60000000E+01  1.00800000E+00  1.00800000E+00  0.00000000E+00  1.60000000E+01
  1.00800000E+00  1.00800000E+00  0.00000000E+00  1.60000000E+01  1.00800000E+00
  1.00800000E+00  0.00000000E+00  1.60000000E+01  1.00800000E+00  1.00800000E+00
  0.00000000E+00  1.60000000E+01  1.00800000E+00  1.00800000E+00  0.00000000E+00
  1.60000000E+01  1.00800000E+00  1.00800000E+00  0.00000000E+00  1.60000000E+01
  1.00800000E+00  1.00800000E+00  0.00000000E+00  1.60000000E+01  1.00800000E+00
  1.00800000E+00  0.00000000E+00  1.60000000E+01  1.00800000E+00  1.00800000E+00
  0.00000000E+00  1.60000000E+01  1.00800000E+00  1.00800000E+00  0.00000000E+00
  1.60000000E+01  1.00800000E+00  1.00800000E+00  0.00000000E+00  1.60000000E+01
  1.00800000E+00  1.00800000E+00  0.00000000E+00  1.60000000E+01  1.00800000E+00
  1.00800000E+00  0.00000000E+00  1.60000000E+01  1.00800000E+00  1.00800000E+00
  0.00000000E+00
%FLAG ATOM_TYPE_INDEX
%FORMAT(10I8)
       1       2       2       2       3       4       3       5       5       6
       7       8       9       1       2       3       5       3      10      10
       3      10       3      10      10      10       3      10      10      10
       8       9       1       2       3       5       3      10      10      10
       8       9       1       2       3       5       3      10      10       8
       1       8      11       1       2       8      12       8       9       1
       2       3       5       3       5       5       6       7       8       9
       9       1       2       2       2       3       4       3      10      10
       3      10       3      10      10      10       3      10      10      10
       8       9       1       2       3       5       3      10       3      10
      10      10       3      10      10      10       8       9       1       2
       3       5       3       5       3      10      10      10       6       7
       8       9       1       2       3       5       3      10      10       3
      10      10       3      10      10       3       4       4       1       2
       2       2       8       9       1       2       3       5       3      10
      10       3      10       3      10      10      10       3      10      10
      10       8       9       9      13      14      13      13      13      13
      13      15      15      16      17      17      15      18      13      17
      18      19      19      13      13      13      13      13      13      20
      21      21      22      22      22      22      23      23      23      21
      21      21      21      24      25      25      25      25      25      25
      25      24      24      24      24      24      24      24      26       7
       7      27      26       7       7      27      26       7       7      27
      26       7       7      27      26       7       7      27      26       7
       7      27      26       7       7      27      26       7       7      27
      26       7       7      27      26       7       7      27      26       7
       7      27      26       7       7      27      26       7       7      27
      26       7       7      27      26       7       7      27      26       7
       7      27      26       7       7      27      26       7       7      27
      26       7       7      27      26       7       7      27      26       7
       7      27      26       7       7      27      26       7       7      27
      26       7       7      27      26       7       7      27      26       7
       7      27      26       7       7      27      26       7       7      27
      26       7       7      27      26       7       7      27      26       7
       7      27      26       7       7      27      26       7       7      27
      26       7       7      27      26       7       7      27      26       7
       7      27      26       7       7      27      26       7       7      27
      26       7       7      27      26       7       7      27      26       7
       7      27      26       7       7      27      26       7       7      27
      26       7       7      27      26       7       7      27      26       7
       7      27      26       7       7      27      26       7       7      27
      26       7       7      27      26       7       7      27      26       7
       7      27      26       7       7      27      26       7       7      27
      26       7       7      27      26       7       7      27      26       7
       7      27      26       7       7      27      26       7       7      27
      26       7       7      27      26       7       7      27      26       7
       7      27      26       7       7      27      26       7       7      27
      26       7       7      27      26       7       7      27      26       7
       7      27      26       7       7      27      26       7       7      27
      26       7       7      27      26       7       7      27      26       7
       7      27      26       7       7      27      26       7       7      27
      26       7       7      27      26       7       7      27      26       7
       7      27      26       7       7      27      26       7       7      27
      26       7       7      27      26       7       7      27      26       7
       7      27      26       7       7      27      26       7       7      27
      26       7       7      27      26       7       7      27      26       7
       7      27      26       7       7      27      26       7       7      27
      26       7       7      27      26       7       7      27      26       7
       7      27      26       7       7      27      26       7       7      27
      26       7       7      27      26       7       7      27      26       7
       7      27      26       7       7      27      26       7       7      27
      26       7       7      27      26       7       7      27      26       7
       7      27      26       7       7      27      26       7       7      27
      26       7       7      27      26       7       7      27      26       7
       7      27      26       7       7      27      26       7       7      27
      26       7       7      27      26       7       7      27      26       7
       7      27      26       7       7      27      26       7       7      27
      26       7       7      27      26       7       7      27      26       7
       7      27      26       7       7      27      26       7       7      27
      26       7       7      27      26       7       7      27      26       7
       7      27      26       7       7      27      26       7       7      27
      26       7       7      27      26       7       7      27      26       7
       7      27      26       7       7      27      26       7       7      27
      26       7       7      27      26       7       7      27      26       7
       7      27      26       7       7      27      26       7       7      27
      26       7       7      27      26       7       7      27      26       7
       7      27      26       7       7      27      26       7       7      27
      26       7       7      27      26       7       7      27      26       7
       7      27      26       7       7      27      26       7       7      27
      26       7       7      27      26       7       7      27      26       7
       7      27      26       7       7      27      26       7       7      27
      26       7       7      27      26       7       7      27      26       7
       7      27      26       7       7      27      26       7       7      27
      26       7       7      27      26       7       7      27      26       7
       7      27      26       7       7      27      26       7       7      27
      26       7       7      27      26       7       7      27      26       7
       7      27      26       7       7      27      26       7       7      27
      26       7       7      27      26       7       7      27      26       7
       7      27      26       7       7      27      26       7       7      27
      26       7       7      27      26       7       7      27      26       7
       7      27      26       7       7      27      26       7       7      27
      26       7       7      27      26       7       7      27      26       7
       7      27      26       7       7      27      26       7       7      27
      26       7       7      27      26       7       7      27      26       7
       7      27      26       7       7      27      26       7       7      27
      26       7       7      27      26       7       7      27      26       7
       7      27      26       7       7      27      26       7       7      27
      26       7       7      27      26       7       7      27      26       7
       7      27      26       7       7      27      26       7       7      27
      26       7       7      27      26       7       7      27      26       7
       7      27      26       7       7      27      26       7       7      27
      26       7       7      27      26       7       7      27      26       7
       7      27      26       7       7      27      26       7       7      27
      26       7       7      27      26       7       7      27      26       7
       7      27      26       7       7      27      26       7       7      27
      26       7       7      27      26       7       7      27      26       7
       7      27      26       7       7      27      26       7       7      27
      26       7       7      27      26       7       7      27      26       7
       7      27      26       7       7      27      26       7       7      27
      26       7       7      27      26       7       7      27      26       7
       7      27      26       7       7      27      26       7       7      27
      26       7       7      27      26       7       7      27      26       7
       7      27      26       7       7      27      26       7       7      27
      26       7       7      27      26       7       7      27      26       7
       7      27      26       7       7      27      26       7       7      27
      26       7       7      27      26       7       7      27      26       7
       7      27      26       7       7      27      26       7       7      27
      26       7       7      27      26       7       7      27      26       7
       7      27      26       7       7      27      26       7       7      27
      26       7       7      27      26       7       7      27      26       7
       7      27      26       7       7      27      26       7       7      27
      26       7       7      27      26       7       7      27      26       7
       7      27      26       7       7      27      26       7       7      27
      26       7       7      27      26       7       7      27      26       7
       7      27      26       7       7      27      26       7       7      27
      26       7       7      27      26       7       7      27      26       7
       7      27      26       7       7      27      26       7       7      27
      26       7       7      27      26       7       7      27      26       7
       7      27      26       7       7      27      26       7       7      27
      26       7       7      27      26       7       7      27      26       7
       7      27      26       7       7      27      26       7       7      27
      26       7       7      27      26       7       7      27      26       7
       7      27      26       7       7      27      26       7       7      27
      26       7       7      27      26       7       7      27      26       7
       7      27      26       7       7      27      26       7       7      27
      26       7       7      27      26       7       7      27      26       7
       7      27      26       7       7      27      26       7       7      27
      26       7       7      27      26       7       7      27      26       7
       7      27      26       7       7      27      26       7       7      27
      26       7       7      27      26       7       7      27      26       7
       7      27      26       7       7      27      26       7       7      27
      26       7       7      27      26       7       7      27      26       7
       7      27      26       7       7      27      26       7       7      27
      26       7       7      27      26       7       7      27      26       7
       7      27      26       7       7      27      26       7       7      27
      26       7       7      27      26       7       7      27      26       7
       7      27      26       7       7      27      26       7       7      27
      26       7       7      27      26       7       7      27      26       7
       7      27      26       7       7      27      26       7       7      27
      26       7       7      27      26       7       7      27      26       7
       7      27      26       7       7      27      26       7       7      27
      26       7       7      27      26       7       7      27      26       7
       7      27      26       7       7      27      26       7       7      27
      26       7       7      27      26       7       7      27      26       7
       7      27      26       7       7      27      26       7       7      27
      26       7       7      27      26       7       7      27      26       7
       7      27      26       7       7      27      26       7       7      27
      26       7       7      27      26       7       7      27      26       7
       7      27      26       7       7      27      26       7       7      27
      26       7       7      27      26       7       7      27      26       7
       7      27      26       7       7      27      26       7       7      27
      26       7       7      27      26       7       7      27      26       7
       7      27      26       7       7      27      26       7       7      27
      26       7       7      27      26       7       7      27      26       7
       7      27      26       7       7      27      26       7       7      27
      26       7       7      27      26       7       7      27      26       7
       7      27      26       7       7      27      26       7       7      27
      26       7       7      27      26       7       7      27      26       7
       7      27      26       7       7      27      26       7       7      27
      26       7       7      27      26       7       7      27      26       7
       7      27      26       7       7      27      26       7       7      27
      26       7       7      27      26       7       7      27      26       7
       7      27      26       7       7      27      26       7       7      27
      26       7       7      27      26       7       7      27      26       7
       7      27      26       7       7      27      26       7       7      27
      26       7       7      27      26       7       7      27      26       7
       7      27      26       7       7      27      26       7       7      27
      26       7       7      27      26       7       7      27      26       7
       7      27      26       7       7      27      26       7       7      27
      26       7       7      27      26       7       7      27      26       7
       7      27      26       7       7      27      26       7       7      27
      26       7       7      27      26       7       7      27      26       7
       7      27      26       7       7      27      26       7       7      27
      26       7       7      27      26       7       7      27      26       7
       7      27      26       7       7      27      26       7       7      27
      26       7       7      27      26       7       7      27      26       7
       7      27      26       7       7      27      26       7       7      27
      26       7       7      27      26       7       7      27      26       7
       7      27      26       7       7      27      26       7       7      27
      26       7       7      27      26       7       7      27      26       7
       7      27      26       7       7      27      26       7       7      27
      26       7       7      27      26       7       7      27      26       7
       7      27      26       7       7      27      26       7       7      27
      26       7       7      27      26       7       7      27      26       7
       7      27      26       7       7      27      26       7       7      27
      26       7       7      27      26       7       7      27      26       7
       7      27      26       7       7      27      26       7       7      27
      26       7       7      27      26       7       7      27      26       7
       7      27      26       7       7      27      26       7       7      27
      26       7       7      27      26       7       7      27      26       7
       7      27      26       7       7      27      26       7       7      27
      26       7       7      27      26       7       7      27      26       7
       7      27      26       7       7      27      26       7       7      27
      26       7       7      27      26       7       7      27      26       7
       7      27      26       7       7      27      26       7       7      27
      26       7       7      27      26       7       7      27      26       7
       7      27      26       7       7      27      26       7       7      27
      26       7       7      27      26       7       7      27      26       7
       7      27      26       7       7      27      26       7       7      27
      26       7       7      27      26       7       7      27      26       7
       7      27      26       7       7      27      26       7       7      27
      26       7       7      27      26       7       7      27      26       7
       7      27      26       7       7      27      26       7       7      27
      26       7       7      27      26       7       7      27      26       7
       7      27      26       7       7      27      26       7       7      27
      26       7       7      27      26       7       7      27      26       7
       7      27      26       7       7      27      26       7       7      27
      26       7       7      27      26       7       7      27      26       7
       7      27      26       7       7      27      26       7       7      27
      26       7       7      27      26       7       7      27      26       7
       7      27      26       7       7      27      26       7       7      27
      26       7       7      27      26       7       7      27      26       7
       7      27      26       7       7      27      26       7       7      27
      26       7       7      27      26       7       7      27      26       7
       7      27      26       7       7      27      26       7       7      27
      26       7       7      27      26       7       7      27      26       7
       7      27      26       7       7      27      26       7       7      27
      26       7       7      27      26       7       7      27      26       7
       7      27      26       7       7      27      26       7       7      27
      26       7       7      27      26       7       7      27      26       7
       7      27      26       7       7      27      26       7       7      27
      26       7       7      27      26       7       7      27      26       7
       7      27      26       7       7      27      26       7       7      27
      26       7       7      27      26       7       7      27      26       7
       7      27      26       7       7      27      26       7       7      27
      26       7       7      27      26       7       7      27      26       7
       7      27      26       7       7      27      26       7       7      27
      26       7       7      27      26       7       7      27      26       7
       7      27      26       7       7      27      26       7       7      27
      26       7       7      27      26       7       7      27      26       7
       7      27      26       7       7      27      26       7       7      27
      26       7       7      27      26       7       7      27      26       7
       7      27      26       7       7      27      26       7       7      27
      26       7       7      27      26       7       7      27      26       7
       7      27      26       7       7      27      26       7       7      27
      26       7       7      27      26       7       7      27      26       7
       7      27      26       7       7      27      26       7       7      27
      26       7       7      27      26       7       7      27      26       7
       7      27      26       7       7      27      26       7       7      27
      26       7       7      27      26       7       7      27      26       7
       7      27      26       7       7      27      26       7       7      27
      26       7       7      27      26       7       7      27      26       7
       7      27      26       7       7      27      26       7       7      27
      26       7       7      27      26       7       7      27      26       7
       7      27      26       7       7      27      26       7       7      27
      26       7       7      27      26       7       7      27      26       7
       7      27      26       7       7      27      26       7       7      27
      26       7       7      27      26       7       7      27      26       7
       7      27      26       7       7      27      26       7       7      27
      26       7       7      27      26       7       7      27      26       7
       7      27      26       7       7      27      26       7       7      27
      26       7       7      27      26       7       7      27      26       7
       7      27      26       7       7      27      26       7       7      27
      26       7       7      27      26       7       7      27      26       7
       7      27      26       7       7      27      26       7       7      27
      26       7       7      27      26       7       7      27      26       7
       7      27      26       7       7      27      26       7       7      27
      26       7       7      27      26       7       7      27      26       7
       7      27      26       7       7      27      26       7       7      27
      26       7       7      27      26       7       7      27      26       7
       7      27      26       7       7      27      26       7       7      27
      26       7       7      27      26       7       7      27      26       7
       7      27      26       7       7      27      26       7       7      27
      26       7       7      27      26       7       7      27      26       7
       7      27      26       7       7      27      26       7       7      27
      26       7       7      27      26       7       7      27      26       7
       7      27      26       7       7      27      26       7       7      27
      26       7       7      27      26       7       7      27      26       7
       7      27      26       7       7      27      26       7       7      27
      26       7       7      27      26       7       7      27      26       7
       7      27      26       7       7      27      26       7       7      27
      26       7       7      27      26       7       7      27      26       7
       7      27      26       7       7      27      26       7       7      27
      26       7       7      27      26       7       7      27      26       7
       7      27      26       7       7      27      26       7       7      27
      26       7       7      27      26       7       7      27      26       7
       7      27      26       7       7      27      26       7       7      27
      26       7       7      27      26       7       7      27      26       7
       7      27      26       7       7      27      26       7       7      27
      26       7       7      27      26       7       7      27      26       7
       7      27      26       7       7      27      26       7       7      27
      26       7       7      27      26       7       7      27      26       7
       7      27      26       7       7      27      26       7       7      27
      26       7       7      27      26       7       7      27      26       7
       7      27      26       7       7      27      26       7       7      27
      26       7       7      27      26       7       7      27      26       7
       7      27      26       7       7      27      26       7       7      27
      26       7       7      27      26       7       7      27      26       7
       7      27      26       7       7      27      26       7       7      27
      26       7       7      27      26       7       7      27      26       7
       7      27      26       7       7      27      26       7       7      27
      26       7       7      27      26       7       7      27      26       7
       7      27      26       7       7      27      26       7       7      27
      26       7       7      27      26       7       7      27      26       7
       7      27      26       7       7      27      26       7       7      27
      26       7       7      27      26       7       7      27      26       7
       7      27      26       7       7      27      26       7       7      27
      26       7       7      27      26       7       7      27      26       7
       7      27      26       7       7      27      26       7       7      27
      26       7       7      27      26       7       7      27      26       7
       7      27      26       7       7      27      26       7       7      27
      26       7       7      27      26       7       7      27      26       7
       7      27      26       7       7      27      26       7       7      27
      26       7       7      27      26       7       7      27      26       7
       7      27      26       7       7      27      26       7       7      27
      26       7       7      27      26       7       7      27      26       7
       7      27      26       7       7      27      26       7       7      27
      26       7       7      27      26       7       7      27      26       7
       7      27      26       7       7      27      26       7       7      27
      26       7       7      27      26       7       7      27      26       7
       7      27      26       7       7      27      26       7       7      27
      26       7       7      27      26       7       7      27      26       7
       7      27      26       7       7      27      26       7       7      27
      26       7       7      27      26       7       7      27      26       7
       7      27      26       7       7      27      26       7       7      27
      26       7       7      27      26       7       7      27      26       7
       7      27      26       7       7      27      26       7       7      27
      26       7       7      27      26       7       7      27      26       7
       7      27      26       7       7      27      26       7       7      27
      26       7       7      27      26       7       7      27      26       7
       7      27      26       7       7      27      26       7       7      27
      26       7       7      27      26       7       7      27      26       7
       7      27      26       7       7      27      26       7       7      27
      26       7       7      27      26       7       7      27      26       7
       7      27      26       7       7      27      26       7       7      27
      26       7       7      27      26       7       7      27      26       7
       7      27      26       7       7      27      26       7       7      27
      26       7       7      27      26       7       7      27      26       7
       7      27      26       7       7      27      26       7       7      27
      26       7       7      27      26       7       7      27      26       7
       7      27      26       7       7      27      26       7       7      27
      26       7       7      27      26       7       7      27      26       7
       7      27      26       7       7      27      26       7       7      27
      26       7       7      27      26       7       7      27      26       7
       7      27      26       7       7      27      26       7       7      27
      26       7       7      27      26       7       7      27      26       7
       7      27      26       7       7      27      26       7       7      27
      26       7       7      27      26       7       7      27      26       7
       7      27      26       7       7      27      26       7       7      27
      26       7       7      27      26       7       7      27      26       7
       7      27      26       7       7      27      26       7       7      27
      26       7       7      27      26       7       7      27      26       7
       7      27      26       7       7      27      26       7       7      27
      26       7       7      27      26       7       7      27      26       7
       7      27      26       7       7      27      26       7       7      27
      26       7       7      27      26       7       7      27      26       7
       7      27      26       7       7      27      26       7       7      27
      26       7       7      27      26       7       7      27      26       7
       7      27      26       7       7      27      26       7       7      27
      26       7       7      27      26       7       7      27      26       7
       7      27      26       7       7      27      26       7       7      27
      26       7       7      27      26       7       7      27      26       7
       7      27      26       7       7      27      26       7       7      27
      26       7       7      27      26       7       7      27      26       7
       7      27      26       7       7      27      26       7       7      27
      26       7       7      27      26       7       7      27      26       7
       7      27      26       7       7      27      26       7       7      27
      26       7       7      27      26       7       7      27      26       7
       7      27      26       7       7      27      26       7       7      27
      26       7       7      27      26       7       7      27      26       7
       7      27      26       7       7      27      26       7       7      27
      26       7       7      27      26       7       7      27      26       7
       7      27      26       7       7      27      26       7       7      27
      26       7       7      27      26       7       7      27      26       7
       7      27      26       7       7      27      26       7       7      27
      26       7       7      27      26       7       7      27      26       7
       7      27      26       7       7      27      26       7       7      27
      26       7       7      27      26       7       7      27      26       7
       7      27      26       7       7      27      26       7       7      27
      26       7       7      27      26       7       7      27      26       7
       7      27      26       7       7      27      26       7       7      27
      26       7       7      27      26       7       7      27      26       7
       7      27      26       7       7      27      26       7       7      27
      26       7       7      27      26       7       7      27      26       7
       7      27      26       7       7      27      26       7       7      27
      26       7       7      27      26       7       7      27      26       7
       7      27      26       7       7      27      26       7       7      27
      26       7       7      27      26       7       7      27      26       7
       7      27      26       7       7      27      26       7       7      27
      26       7       7      27      26       7       7      27      26       7
       7      27      26       7       7      27      26       7       7      27
      26       7       7      27      26       7       7      27      26       7
       7      27      26       7       7      27      26       7       7      27
      26       7       7      27      26       7       7      27      26       7
       7      27      26       7       7      27      26       7       7      27
      26       7       7      27      26       7       7      27      26       7
       7      27      26       7       7      27      26       7       7      27
      26       7       7      27      26       7       7      27      26       7
       7      27      26       7       7      27      26       7       7      27
      26       7       7      27      26       7       7      27      26       7
       7      27      26       7       7      27      26       7       7      27
      26       7       7      27      26       7       7      27      26       7
       7      27      26       7       7      27      26       7       7      27
      26       7       7      27      26       7       7      27      26       7
       7      27      26       7       7      27      26       7       7      27
      26       7       7      27      26       7       7      27      26       7
       7      27      26       7       7      27      26       7       7      27
      26       7       7      27      26       7       7      27      26       7
       7      27      26       7       7      27      26       7       7      27
      26       7       7      27      26       7       7      27      26       7
       7      27      26       7       7      27      26       7       7      27
      26       7       7      27      26       7       7      27      26       7
       7      27      26       7       7      27      26       7       7      27
      26       7       7      27      26       7       7      27      26       7
       7      27      26       7       7      27      26       7       7      27
      26       7       7      27      26       7       7      27      26       7
       7      27      26       7       7      27      26       7       7      27
      26       7       7      27      26       7       7      27      26       7
       7      27      26       7       7      27      26       7       7      27
      26       7       7      27      26       7       7      27      26       7
       7      27      26       7       7      27      26       7       7      27
      26       7       7      27      26       7       7      27      26       7
       7      27      26       7       7      27      26       7       7      27
      26       7       7      27      26       7       7      27      26       7
       7      27      26       7       7      27      26       7       7      27
      26       7       7      27      26       7       7      27      26       7
       7      27      26       7       7      27      26       7       7      27
      26       7       7      27      26       7       7      27      26       7
       7      27      26       7       7      27      26       7       7      27
      26       7       7      27      26       7       7      27      26       7
       7      27      26       7       7      27      26       7       7      27
      26       7       7      27      26       7       7      27      26       7
       7      27      26       7       7      27      26       7       7      27
      26       7       7      27      26       7       7      27      26       7
       7      27      26       7       7      27      26       7       7      27
      26       7       7      27      26       7       7      27      26       7
       7      27      26       7       7      27      26       7       7      27
      26       7       7      27      26       7       7      27      26       7
       7      27      26       7       7      27      26       7       7      27
      26       7       7      27      26       7       7      27      26       7
       7      27      26       7       7      27      26       7       7      27
      26       7       7      27      26       7       7      27      26       7
       7      27      26       7       7      27      26       7       7      27
      26       7       7      27      26       7       7      27      26       7
       7      27      26       7       7      27      26       7       7      27
      26       7       7      27      26       7       7      27      26       7
       7      27      26       7       7      27      26       7       7      27
      26       7       7      27      26       7       7      27      26       7
       7      27      26       7       7      27      26       7       7      27
      26       7       7      27      26       7       7      27      26       7
       7      27      26       7       7      27      26       7       7      27
      26       7       7      27      26       7       7      27      26       7
       7      27      26       7       7      27      26       7       7      27
      26       7       7      27      26       7       7      27      26       7
       7      27      26       7       7      27      26       7       7      27
      26       7       7      27      26       7       7      27      26       7
       7      27      26       7       7      27      26       7       7      27
      26       7       7      27      26       7       7      27      26       7
       7      27      26       7       7      27      26       7       7      27
      26       7       7      27      26       7       7      27      26       7
       7      27      26       7       7      27      26       7       7      27
      26       7       7      27      26       7       7      27      26       7
       7      27      26       7       7      27      26       7       7      27
      26       7       7      27      26       7       7      27      26       7
       7      27      26       7       7      27      26       7       7      27
      26       7       7      27      26       7       7      27      26       7
       7      27      26       7       7      27      26       7       7      27
      26       7       7      27      26       7       7      27      26       7
       7      27      26       7       7      27      26       7       7      27
      26       7       7      27      26       7       7      27      26       7
       7      27      26       7       7      27      26       7       7      27
      26       7       7      27      26       7       7      27      26       7
       7      27      26       7       7      27      26       7       7      27
      26       7       7      27      26       7       7      27      26       7
       7      27      26       7       7      27      26       7       7      27
      26       7       7      27      26       7       7      27      26       7
       7      27      26       7       7      27      26       7       7      27
      26       7       7      27      26       7       7      27      26       7
       7      27      26       7       7      27      26       7       7      27
      26       7       7      27      26       7       7      27      26       7
       7      27      26       7       7      27      26       7       7      27
      26       7       7      27      26       7       7      27      26       7
       7      27      26       7       7      27      26       7       7      27
      26       7       7      27      26       7       7      27      26       7
       7      27      26       7       7      27      26       7       7      27
      26       7       7      27      26       7       7      27      26       7
       7      27      26       7       7      27      26       7       7      27
      26       7       7      27      26       7       7      27      26       7
       7      27      26       7       7      27      26       7       7      27
      26       7       7      27      26       7       7      27      26       7
       7      27      26       7       7      27      26       7       7      27
      26       7       7      27      26       7       7      27      26       7
       7      27      26       7       7      27      26       7       7      27
      26       7       7      27      26       7       7      27      26       7
       7      27      26       7       7      27      26       7       7      27
      26       7       7      27      26       7       7      27      26       7
       7      27      26       7       7      27      26       7       7      27
      26       7       7      27      26       7       7      27      26       7
       7      27      26       7       7      27      26       7       7      27
      26       7       7      27      26       7       7      27      26       7
       7      27      26       7       7      27      26       7       7      27
      26       7       7      27      26       7       7      27      26       7
       7      27      26       7       7      27      26       7       7      27
      26       7       7      27      26       7       7      27      26       7
       7      27      26       7       7      27      26       7       7      27
      26       7       7      27      26       7       7      27      26       7
       7      27      26       7       7      27      26       7       7      27
      26       7       7      27      26       7       7      27      26       7
       7      27      26       7       7      27      26       7       7      27
      26       7       7      27      26       7       7      27      26       7
       7      27      26       7       7      27      26       7       7      27
      26       7       7      27      26       7       7      27      26       7
       7      27      26       7       7      27      26       7       7      27
      26       7       7      27      26       7       7      27      26       7
       7      27      26       7       7      27      26       7       7      27
      26       7       7      27      26       7       7      27      26       7
       7      27      26       7       7      27      26       7       7      27
      26       7       7      27      26       7       7      27      26       7
       7      27      26       7       7      27      26       7       7      27
      26       7       7      27      26       7       7      27      26       7
       7      27      26       7       7      27      26       7       7      27
      26       7       7      27      26       7       7      27      26       7
       7      27      26       7       7      27      26       7       7      27
      26       7       7      27      26       7       7      27      26       7
       7      27      26       7       7      27      26       7       7      27
      26       7       7      27      26       7       7      27      26       7
       7      27      26       7       7      27      26       7       7      27
      26       7       7      27      26       7       7      27      26       7
       7      27      26       7       7      27      26       7       7      27
      26       7       7      27      26       7       7      27      26       7
       7      27      26       7       7      27      26       7       7      27
      26       7       7      27      26       7       7      27      26       7
       7      27      26       7       7      27      26       7       7      27
      26       7       7      27      26       7       7      27      26       7
       7      27      26       7       7      27      26       7       7      27
      26       7       7      27      26       7       7      27      26       7
       7      27      26       7       7      27      26       7       7      27
      26       7       7      27      26       7       7      27      26       7
       7      27      26       7       7      27      26       7       7      27
      26       7       7      27      26       7       7      27      26       7
       7      27      26       7       7      27      26       7       7      27
      26       7       7      27      26       7       7      27      26       7
       7      27      26       7       7      27      26       7       7      27
      26       7       7      27      26       7       7      27      26       7
       7      27      26       7       7      27      26       7       7      27
      26       7       7      27      26       7       7      27      26       7
       7      27      26       7       7      27      26       7       7      27
      26       7       7      27      26       7       7      27      26       7
       7      27      26       7       7      27      26       7       7      27
      26       7       7      27      26       7       7      27      26       7
       7      27      26       7       7      27      26       7       7      27
      26       7       7      27      26       7       7      27      26       7
       7      27      26       7       7      27      26       7       7      27
      26       7       7      27      26       7       7      27      26       7
       7      27      26       7       7      27      26       7       7      27
      26       7       7      27      26       7       7      27      26       7
       7      27      26       7       7      27      26       7       7      27
      26       7       7      27      26       7       7      27      26       7
       7      27      26       7       7      27      26       7       7      27
      26       7       7      27      26       7       7      27      26       7
       7      27      26       7       7      27      26       7       7      27
      26       7       7      27      26       7       7      27      26       7
       7      27      26       7       7      27      26       7       7      27
      26       7       7      27      26       7       7      27      26       7
       7      27      26       7       7      27      26       7       7      27
      26       7       7      27      26       7       7      27      26       7
       7      27      26       7       7      27      26       7       7      27
      26       7       7      27      26       7       7      27      26       7
       7      27      26       7       7      27      26       7       7      27
      26       7       7      27      26       7       7      27      26       7
       7      27      26       7       7      27      26       7       7      27
      26       7       7      27      26       7       7      27      26       7
       7      27      26       7       7      27      26       7       7      27
      26       7       7      27      26       7       7      27      26       7
       7      27      26       7       7      27      26       7       7      27
      26       7       7      27      26       7       7      27      26       7
       7      27      26       7       7      27      26       7       7      27
      26       7       7      27      26       7       7      27      26       7
       7      27      26       7       7      27      26       7       7      27
      26       7       7      27      26       7       7      27      26       7
       7      27      26       7       7      27      26       7       7      27
      26       7       7      27      26       7       7      27      26       7
       7      27      26       7       7      27      26       7       7      27
      26       7       7      27      26       7       7      27      26       7
       7      27      26       7       7      27      26       7       7      27
      26       7       7      27      26       7       7      27      26       7
       7      27      26       7       7      27      26       7       7      27
      26       7       7      27      26       7       7      27      26       7
       7      27      26       7       7      27      26       7       7      27
      26       7       7      27      26       7       7      27      26       7
       7      27      26       7       7      27      26       7       7      27
      26       7       7      27      26       7       7      27      26       7
       7      27      26       7       7      27      26       7       7      27
      26       7       7      27      26       7       7      27      26       7
       7      27      26       7       7      27      26       7       7      27
      26       7       7      27      26       7       7      27      26       7
       7      27      26       7       7      27      26       7       7      27
      26       7       7      27      26       7       7      27      26       7
       7      27      26       7       7      27      26       7       7      27
      26       7       7      27      26       7       7      27      26       7
       7      27      26       7       7      27      26       7       7      27
      26       7       7      27      26       7       7      27      26       7
       7      27      26       7       7      27      26       7       7      27
      26       7       7      27      26       7       7      27      26       7
       7      27      26       7       7      27      26       7       7      27
      26       7       7      27      26       7       7      27      26       7
       7      27      26       7       7      27      26       7       7      27
      26       7       7      27      26       7       7      27      26       7
       7      27      26       7       7      27      26       7       7      27
      26       7       7      27      26       7       7      27      26       7
       7      27      26       7       7      27      26       7       7      27
      26       7       7      27      26       7       7      27      26       7
       7      27      26       7       7      27      26       7       7      27
      26       7       7      27      26       7       7      27      26       7
       7      27      26       7       7      27      26       7       7      27
      26       7       7      27      26       7       7      27      26       7
       7      27      26       7       7      27      26       7       7      27
      26       7       7      27      26       7       7      27      26       7
       7      27      26       7       7      27      26       7       7      27
      26       7       7      27      26       7       7      27      26       7
       7      27      26       7       7      27      26       7       7      27
      26       7       7      27      26       7       7      27      26       7
       7      27      26       7       7      27      26       7       7      27
      26       7       7      27      26       7       7      27      26       7
       7      27      26       7       7      27      26       7       7      27
      26       7       7      27      26       7       7      27      26       7
       7      27      26       7       7      27      26       7       7      27
      26       7       7      27      26       7       7      27      26       7
       7      27      26       7       7      27      26       7       7      27
      26       7       7      27      26       7       7      27      26       7
       7      27      26       7       7      27      26       7       7      27
      26       7       7      27      26       7       7      27      26       7
       7      27      26       7       7      27      26       7       7      27
      26       7       7      27      26       7       7      27      26       7
       7      27      26       7       7      27      26       7       7      27
      26       7       7      27      26       7       7      27      26       7
       7      27      26       7       7      27      26       7       7      27
      26       7       7      27      26       7       7      27      26       7
       7      27      26       7       7      27      26       7       7      27
      26       7       7      27      26       7       7      27      26       7
       7      27      26       7       7      27      26       7       7      27
      26       7       7      27      26       7       7      27      26       7
       7      27      26       7       7      27      26       7       7      27
      26       7       7      27      26       7       7      27      26       7
       7      27      26       7       7      27      26       7       7      27
      26       7       7      27      26       7       7      27      26       7
       7      27      26       7       7      27      26       7       7      27
      26       7       7      27      26       7       7      27      26       7
       7      27      26       7       7      27      26       7       7      27
      26       7       7      27      26       7       7      27      26       7
       7      27      26       7       7      27      26       7       7      27
      26       7       7      27      26       7       7      27      26       7
       7      27      26       7       7      27      26       7       7      27
      26       7       7      27      26       7       7      27      26       7
       7      27      26       7       7      27      26       7       7      27
      26       7       7      27      26       7       7      27      26       7
       7      27      26       7       7      27      26       7       7      27
      26       7       7      27      26       7       7      27      26       7
       7      27      26       7       7      27      26       7       7      27
      26       7       7      27      26       7       7      27      26       7
       7      27      26       7       7      27      26       7       7      27
      26       7       7      27      26       7       7      27      26       7
       7      27      26       7       7      27      26       7       7      27
      26       7       7      27      26       7       7      27      26       7
       7      27      26       7       7      27      26       7       7      27
      26       7       7      27      26       7       7      27      26       7
       7      27      26       7       7      27      26       7       7      27
      26       7       7      27      26       7       7      27      26       7
       7      27      26       7       7      27      26       7       7      27
      26       7       7      27      26       7       7      27      26       7
       7      27      26       7       7      27      26       7       7      27
      26       7       7      27      26       7       7      27      26       7
       7      27      26       7       7      27      26       7       7      27
      26       7       7      27      26       7       7      27      26       7
       7      27      26       7       7      27      26       7       7      27
      26       7       7      27      26       7       7      27      26       7
       7      27      26       7       7      27      26       7       7      27
      26       7       7      27      26       7       7      27      26       7
       7      27      26       7       7      27      26       7       7      27
      26       7       7      27      26       7       7      27      26       7
       7      27      26       7       7      27      26       7       7      27
      26       7       7      27      26       7       7      27      26       7
       7      27      26       7       7      27      26       7       7      27
      26       7       7      27      26       7       7      27      26       7
       7      27      26       7       7      27      26       7       7      27
      26       7       7      27      26       7       7      27      26       7
       7      27      26       7       7      27      26       7       7      27
      26       7       7      27      26       7       7      27      26       7
       7      27      26       7       7      27      26       7       7      27
      26       7       7      27      26       7       7      27      26       7
       7      27      26       7       7      27      26       7       7      27
      26       7       7      27      26       7       7      27      26       7
       7      27      26       7       7      27      26       7       7      27
      26       7       7      27      26       7       7      27      26       7
       7      27      26       7       7      27      26       7       7      27
      26       7       7      27      26       7       7      27      26       7
       7      27      26       7       7      27      26       7       7      27
      26       7       7      27      26       7       7      27      26       7
       7      27      26       7       7      27      26       7       7      27
      26       7       7      27      26       7       7      27      26       7
       7      27      26       7       7      27      26       7       7      27
      26       7       7      27      26       7       7      27      26       7
       7      27      26       7       7      27      26       7       7      27
      26       7       7      27      26       7       7      27      26       7
       7      27      26       7       7      27      26       7       7      27
      26       7       7      27      26       7       7      27      26       7
       7      27      26       7       7      27      26       7       7      27
      26       7       7      27      26       7       7      27      26       7
       7      27      26       7       7      27      26       7       7      27
      26       7       7      27      26       7       7      27      26       7
       7      27      26       7       7      27      26       7       7      27
      26       7       7      27      26       7       7      27      26       7
       7      27      26       7       7      27      26       7       7      27
      26       7       7      27      26       7       7      27      26       7
       7      27      26       7       7      27      26       7       7      27
      26       7       7      27      26       7       7      27      26       7
       7      27      26       7       7      27      26       7       7      27
      26       7       7      27      26       7       7      27      26       7
       7      27      26       7       7      27      26       7       7      27
      26       7       7      27      26       7       7      27      26       7
       7      27      26       7       7      27      26       7       7      27
      26       7       7      27      26       7       7      27      26       7
       7      27      26       7       7      27      26       7       7      27
      26       7       7      27      26       7       7      27      26       7
       7      27      26       7       7      27      26       7       7      27
      26       7       7      27      26       7       7      27      26       7
       7      27      26       7       7      27      26       7       7      27
      26       7       7      27      26       7       7      27      26       7
       7      27      26       7       7      27      26       7       7      27
      26       7       7      27      26       7       7      27      26       7
       7      27      26       7       7      27      26       7       7      27
      26       7       7      27      26       7       7      27      26       7
       7      27      26       7       7      27      26       7       7      27
      26       7       7      27      26       7       7      27      26       7
       7      27      26       7       7      27      26       7       7      27
      26       7       7      27      26       7       7      27      26       7
       7      27      26       7       7      27      26       7       7      27
      26       7       7      27      26       7       7      27      26       7
       7      27      26       7       7      27      26       7       7      27
      26       7       7      27      26       7       7      27      26       7
       7      27      26       7       7      27      26       7       7      27
      26       7       7      27      26       7       7      27      26       7
       7      27      26       7       7      27      26       7       7      27
      26       7       7      27      26       7       7      27      26       7
       7      27      26       7       7      27      26       7       7      27
      26       7       7      27      26       7       7      27      26       7
       7      27      26       7       7      27      26       7       7      27
      26       7       7      27      26       7       7      27      26       7
       7      27      26       7       7      27      26       7       7      27
      26       7       7      27      26       7       7      27      26       7
       7      27      26       7       7      27      26       7       7      27
      26       7       7      27      26       7       7      27      26       7
       7      27      26       7       7      27      26       7       7      27
      26       7       7      27      26       7       7      27      26       7
       7      27      26       7       7      27      26       7       7      27
      26       7       7      27      26       7       7      27      26       7
       7      27      26       7       7      27      26       7       7      27
      26       7       7      27      26       7       7      27      26       7
       7      27      26       7       7      27      26       7       7      27
      26       7       7      27      26       7       7      27      26       7
       7      27      26       7       7      27      26       7       7      27
      26       7       7      27      26       7       7      27      26       7
       7      27      26       7       7      27      26       7       7      27
      26       7       7      27      26       7       7      27      26       7
       7      27      26       7       7      27      26       7       7      27
      26       7       7      27      26       7       7      27      26       7
       7      27      26       7       7      27      26       7       7      27
      26       7       7      27      26       7       7      27      26       7
       7      27      26       7       7      27
%FLAG NUMBER_EXCLUDED_ATOMS
%FORMAT(10I8)
      12       6       5       4      11       7       7       4       3       2
       1       7       3      10       4      13       7      15       6       5
      10       8       7       3       2       1       3       2       1       1
       7       3      10       4      10       7       6       3       2       1
       7       3      10       4      12       7      11       5       4       8
       6       5       3       3       2       1       1       7       3      10
       4       9       7       7       4       3       2       1       2       1
       1      12       6       5       4      13       7      15       6       5
      10       8       7       3       2       1       3       2       1       1
       7       3      10       4      16       7      12       9       8       3
       2       1       4       2       1       1       7       3      10       4
      14       7      10       7       6       3       2       1       2       1
       7       3      10       4      13       7      12       6       5      10
       5       4       9       5       4       6       5       4       3       2
       1       1       7       3      10       4      11       7      15       6
       5      10       8       7       3       2       1       3       2       1
       1       2       1       1      16      12      13      14      13       8
       8       7       6       6       5       4       3       6       7       4
       9       1       3       9       8       7       6       5       5       2
       1       2       3       2       1       1       2       1       1       1
       1       1       1       1       1       1       1       1       1       1
       1       1       1       1       1       1       1       1       3       2
       1       1       3       2       1       1       3       2       1       1
       3       2       1       1       3       2       1       1       3       2
       1       1       3       2       1       1       3       2       1       1
       3       2       1       1       3       2       1       1       3       2
       1       1       3       2       1       1       3       2       1       1
       3       2       1       1       3       2       1       1       3       2
       1       1       3       2       1       1       3       2       1       1
       3       2       1       1       3       2       1       1       3       2
       1       1       3       2       1       1       3       2       1       1
       3       2       1       1       3       2       1       1       3       2
       1       1       3       2       1       1       3       2       1       1
       3       2       1       1       3       2       1       1       3       2
       1       1       3       2       1       1       3       2       1       1
       3       2       1       1       3       2       1       1       3       2
       1       1       3       2       1       1       3       2       1       1
       3       2       1       1       3       2       1       1       3       2
       1       1       3       2       1       1       3       2       1       1
       3       2       1       1       3       2       1       1       3       2
       1       1       3       2       1       1       3       2       1       1
       3       2       1       1       3       2       1       1       3       2
       1       1       3       2       1       1       3       2       1       1
       3       2       1       1       3       2       1       1       3       2
       1       1       3       2       1       1       3       2       1       1
       3       2       1       1       3       2       1       1       3       2
       1       1       3       2       1       1       3       2       1       1
       3       2       1       1       3       2       1       1       3       2
       1       1       3       2       1       1       3       2       1       1
       3       2       1       1       3       2       1       1       3       2
       1       1       3       2       1       1       3       2       1       1
       3       2       1       1       3       2       1       1       3       2
       1       1       3       2       1       1       3       2       1       1
       3       2       1       1       3       2       1       1       3       2
       1       1       3       2       1       1       3       2       1       1
       3       2       1       1       3       2       1       1       3       2
       1       1       3       2       1       1       3       2       1       1
       3       2       1       1       3       2       1       1       3       2
       1       1       3       2       1       1       3       2       1       1
       3       2       1       1       3       2       1       1       3       2
       1       1       3       2       1       1       3       2       1       1
       3       2       1       1       3       2       1       1       3       2
       1       1       3       2       1       1       3       2       1       1
       3       2       1       1       3       2       1       1       3       2
       1       1       3       2       1       1       3       2       1       1
       3       2       1       1       3       2       1       1       3       2
       1       1       3       2       1       1       3       2       1       1
       3       2       1       1       3       2       1       1       3       2
       1       1       3       2       1       1       3       2       1       1
       3       2       1       1       3       2       1       1       3       2
       1       1       3       2       1       1       3       2       1       1
       3       2       1       1       3       2       1       1       3       2
       1       1       3       2       1       1       3       2       1       1
       3       2       1       1       3       2       1       1       3       2
       1       1       3       2       1       1       3       2       1       1
       3       2       1       1       3       2       1       1       3       2
       1       1       3       2       1       1       3       2       1       1
       3       2       1       1       3       2       1       1       3       2
       1       1       3       2       1       1       3       2       1       1
       3       2       1       1       3       2       1       1       3       2
       1       1       3       2       1       1       3       2       1       1
       3       2       1       1       3       2       1       1       3       2
       1       1       3       2       1       1       3       2       1       1
       3       2       1       1       3       2       1       1       3       2
       1       1       3       2       1       1       3       2       1       1
       3       2       1       1       3       2       1       1       3       2
       1       1       3       2       1       1       3       2       1       1
       3       2       1       1       3       2       1       1       3       2
       1       1       3       2       1       1       3       2       1       1
       3       2       1       1       3       2       1       1       3       2
       1       1       3       2       1       1       3       2       1       1
       3       2       1       1       3       2       1       1       3       2
       1       1       3       2       1       1       3       2       1       1
       3       2       1       1       3       2       1       1       3       2
       1       1       3       2       1       1       3       2       1       1
       3       2       1       1       3       2       1       1       3       2
       1       1       3       2       1       1       3       2       1       1
       3       2       1       1       3       2       1       1       3       2
       1       1       3       2       1       1       3       2       1       1
       3       2       1       1       3       2       1       1       3       2
       1       1       3       2       1       1       3       2       1       1
       3       2       1       1       3       2       1       1       3       2
       1       1       3       2       1       1       3       2       1       1
       3       2       1       1       3       2       1       1       3       2
       1       1       3       2       1       1       3       2       1       1
       3       2       1       1       3       2       1       1       3       2
       1       1       3       2       1       1       3       2       1       1
       3       2       1       1       3       2       1       1       3       2
       1       1       3       2       1       1       3       2       1       1
       3       2       1       1       3       2       1       1       3       2
       1       1       3       2       1       1       3       2       1       1
       3       2       1       1       3       2       1       1       3       2
       1       1       3       2       1       1       3       2       1       1
       3       2       1       1       3       2       1       1       3       2
       1       1       3       2       1       1       3       2       1       1
       3       2       1       1       3       2       1       1       3       2
       1       1       3       2       1       1       3       2       1       1
       3       2       1       1       3       2       1       1       3       2
       1       1       3       2       1       1       3       2       1       1
       3       2       1       1       3       2       1       1       3       2
       1       1       3       2       1       1       3       2       1       1
       3       2       1       1       3       2       1       1       3       2
       1       1       3       2       1       1       3       2       1       1
       3       2       1       1       3       2       1       1       3       2
       1       1       3       2       1       1       3       2       1       1
       3       2       1       1       3       2       1       1       3       2
       1       1       3       2       1       1       3       2       1       1
       3       2       1       1       3       2       1       1       3       2
       1       1       3       2       1       1       3       2       1       1
       3       2       1       1       3       2       1       1       3       2
       1       1       3       2       1       1       3       2       1       1
       3       2       1       1       3       2       1       1       3       2
       1       1       3       2       1       1       3       2       1       1
       3       2       1       1       3       2       1       1       3       2
       1       1       3       2       1       1       3       2       1       1
       3       2       1       1       3       2       1       1       3       2
       1       1       3       2       1       1       3       2       1       1
       3       2       1       1       3       2       1       1       3       2
       1       1       3       2       1       1       3       2       1       1
       3       2       1       1       3       2       1       1       3       2
       1       1       3       2       1       1       3       2       1       1
       3       2       1       1       3       2       1       1       3       2
       1       1       3       2       1       1       3       2       1       1
       3       2       1       1       3       2       1       1       3       2
       1       1       3       2       1       1       3       2       1       1
       3       2       1       1       3       2       1       1       3       2
       1       1       3       2       1       1       3       2       1       1
       3       2       1       1       3       2       1       1       3       2
       1       1       3       2       1       1       3       2       1       1
       3       2       1       1       3       2       1       1       3       2
       1       1       3       2       1       1       3       2       1       1
       3       2       1       1       3       2       1       1       3       2
       1       1       3       2       1       1       3       2       1       1
       3       2       1       1       3       2       1       1       3       2
       1       1       3       2       1       1       3       2       1       1
       3       2       1       1       3       2       1       1       3       2
       1       1       3       2       1       1       3       2       1       1
       3       2       1       1       3       2       1       1       3       2
       1       1       3       2       1       1       3       2       1       1
       3       2       1       1       3       2       1       1       3       2
       1       1       3       2       1       1       3       2       1       1
       3       2       1       1       3       2       1       1       3       2
       1       1       3       2       1       1       3       2       1       1
       3       2       1       1       3       2       1       1       3       2
       1       1       3       2       1       1       3       2       1       1
       3       2       1       1       3       2       1       1       3       2
       1       1       3       2       1       1       3       2       1       1
       3       2       1       1       3       2       1       1       3       2
       1       1       3       2       1       1       3       2       1       1
       3       2       1       1       3       2       1       1       3       2
       1       1       3       2       1       1       3       2       1       1
       3       2       1       1       3       2       1       1       3       2
       1       1       3       2       1       1       3       2       1       1
       3       2       1       1       3       2       1       1       3       2
       1       1       3       2       1       1       3       2       1       1
       3       2       1       1       3       2       1       1       3       2
       1       1       3       2       1       1       3       2       1       1
       3       2       1       1       3       2       1       1       3       2
       1       1       3       2       1       1       3       2       1       1
       3       2       1       1       3       2       1       1       3       2
       1       1       3       2       1       1       3       2       1       1
       3       2       1       1       3       2       1       1       3       2
       1       1       3       2       1       1       3       2       1       1
       3       2       1       1       3       2       1       1       3       2
       1       1       3       2       1       1       3       2       1       1
       3       2       1       1       3       2       1       1       3       2
       1       1       3       2       1       1       3       2       1       1
       3       2       1       1       3       2       1       1       3       2
       1       1       3       2       1       1       3       2       1       1
       3       2       1       1       3       2       1       1       3       2
       1       1       3       2       1       1       3       2       1       1
       3       2       1       1       3       2       1       1       3       2
       1       1       3       2       1       1       3       2       1       1
       3       2       1       1       3       2       1       1       3       2
       1       1       3       2       1       1       3       2       1       1
       3       2       1       1       3       2       1       1       3       2
       1       1       3       2       1       1       3       2       1       1
       3       2       1       1       3       2       1       1       3       2
       1       1       3       2       1       1       3       2       1       1
       3       2       1       1       3       2       1       1       3       2
       1       1       3       2       1       1       3       2       1       1
       3       2       1       1       3       2       1       1       3       2
       1       1       3       2       1       1       3       2       1       1
       3       2       1       1       3       2       1       1       3       2
       1       1       3       2       1       1       3       2       1       1
       3       2       1       1       3       2       1       1       3       2
       1       1       3       2       1       1       3       2       1       1
       3       2       1       1       3       2       1       1       3       2
       1       1       3       2       1       1       3       2       1       1
       3       2       1       1       3       2       1       1       3       2
       1       1       3       2       1       1       3       2       1       1
       3       2       1       1       3       2       1       1       3       2
       1       1       3       2       1       1       3       2       1       1
       3       2       1       1       3       2       1       1       3       2
       1       1       3       2       1       1       3       2       1       1
       3       2       1       1       3       2       1       1       3       2
       1       1       3       2       1       1       3       2       1       1
       3       2       1       1       3       2       1       1       3       2
       1       1       3       2       1       1       3       2       1       1
       3       2       1       1       3       2       1       1       3       2
       1       1       3       2       1       1       3       2       1       1
       3       2       1       1       3       2       1       1       3       2
       1       1       3       2       1       1       3       2       1       1
       3       2       1       1       3       2       1       1       3       2
       1       1       3       2       1       1       3       2       1       1
       3       2       1       1       3       2       1       1       3       2
       1       1       3       2       1       1       3       2       1       1
       3       2       1       1       3       2       1       1       3       2
       1       1       3       2       1       1       3       2       1       1
       3       2       1       1       3       2       1       1       3       2
       1       1       3       2       1       1       3       2       1       1
       3       2       1       1       3       2       1       1       3       2
       1       1       3       2       1       1       3       2       1       1
       3       2       1       1       3       2       1       1       3       2
       1       1       3       2       1       1       3       2       1       1
       3       2       1       1       3       2       1       1       3       2
       1       1       3       2       1       1       3       2       1       1
       3       2       1       1       3       2       1       1       3       2
       1       1       3       2       1       1       3       2       1       1
       3       2       1       1       3       2       1       1       3       2
       1       1       3       2       1       1       3       2       1       1
       3       2       1       1       3       2       1       1       3       2
       1       1       3       2       1       1       3       2       1       1
       3       2       1       1       3       2       1       1       3       2
       1       1       3       2       1       1       3       2       1       1
       3       2       1       1       3       2       1       1       3       2
       1       1       3       2       1       1       3       2       1       1
       3       2       1       1       3       2       1       1       3       2
       1       1       3       2       1       1       3       2       1       1
       3       2       1       1       3       2       1       1       3       2
       1       1       3       2       1       1       3       2       1       1
       3       2       1       1       3       2       1       1       3       2
       1       1       3       2       1       1       3       2       1       1
       3       2       1       1       3       2       1       1       3       2
       1       1       3       2       1       1       3       2       1       1
       3       2       1       1       3       2       1       1       3       2
       1       1       3       2       1       1       3       2       1       1
       3       2       1       1       3       2       1       1       3       2
       1       1       3       2       1       1       3       2       1       1
       3       2       1       1       3       2       1       1       3       2
       1       1       3       2       1       1       3       2       1       1
       3       2       1       1       3       2       1       1       3       2
       1       1       3       2       1       1       3       2       1       1
       3       2       1       1       3       2       1       1       3       2
       1       1       3       2       1       1       3       2       1       1
       3       2       1       1       3       2       1       1       3       2
       1       1       3       2       1       1       3       2       1       1
       3       2       1       1       3       2       1       1       3       2
       1       1       3       2       1       1       3       2       1       1
       3       2       1       1       3       2       1       1       3       2
       1       1       3       2       1       1       3       2       1       1
       3       2       1       1       3       2       1       1       3       2
       1       1       3       2       1       1       3       2       1       1
       3       2       1       1       3       2       1       1       3       2
       1       1       3       2       1       1       3       2       1       1
       3       2       1       1       3       2       1       1       3       2
       1       1       3       2       1       1       3       2       1       1
       3       2       1       1       3       2       1       1       3       2
       1       1       3       2       1       1       3       2       1       1
       3       2       1       1       3       2       1       1       3       2
       1       1       3       2       1       1       3       2       1       1
       3       2       1       1       3       2       1       1       3       2
       1       1       3       2       1       1       3       2       1       1
       3       2       1       1       3       2       1       1       3       2
       1       1       3       2       1       1       3       2       1       1
       3       2       1       1       3       2       1       1       3       2
       1       1       3       2       1       1       3       2       1       1
       3       2       1       1       3       2       1       1       3       2
       1       1       3       2       1       1       3       2       1       1
       3       2       1       1       3       2       1       1       3       2
       1       1       3       2       1       1       3       2       1       1
       3       2       1       1       3       2       1       1       3       2
       1       1       3       2       1       1       3       2       1       1
       3       2       1       1       3       2       1       1       3       2
       1       1       3       2       1       1       3       2       1       1
       3       2       1       1       3       2       1       1       3       2
       1       1       3       2       1       1       3       2       1       1
       3       2       1       1       3       2       1       1       3       2
       1       1       3       2       1       1       3       2       1       1
       3       2       1       1       3       2       1       1       3       2
       1       1       3       2       1       1       3       2       1       1
       3       2       1       1       3       2       1       1       3       2
       1       1       3       2       1       1       3       2       1       1
       3       2       1       1       3       2       1       1       3       2
       1       1       3       2       1       1       3       2       1       1
       3       2       1       1       3       2       1       1       3       2
       1       1       3       2       1       1       3       2       1       1
       3       2       1       1       3       2       1       1       3       2
       1       1       3       2       1       1       3       2       1       1
       3       2       1       1       3       2       1       1       3       2
       1       1       3       2       1       1       3       2       1       1
       3       2       1       1       3       2       1       1       3       2
       1       1       3       2       1       1       3       2       1       1
       3       2       1       1       3       2       1       1       3       2
       1       1       3       2       1       1       3       2       1       1
       3       2       1       1       3       2       1       1       3       2
       1       1       3       2       1       1       3       2       1       1
       3       2       1       1       3       2       1       1       3       2
       1       1       3       2       1       1       3       2       1       1
       3       2       1       1       3       2       1       1       3       2
       1       1       3       2       1       1       3       2       1       1
       3       2       1       1       3       2       1       1       3       2
       1       1       3       2       1       1       3       2       1       1
       3       2       1       1       3       2       1       1       3       2
       1       1       3       2       1       1       3       2       1       1
       3       2       1       1       3       2       1       1       3       2
       1       1       3       2       1       1       3       2       1       1
       3       2       1       1       3       2       1       1       3       2
       1       1       3       2       1       1       3       2       1       1
       3       2       1       1       3       2       1       1       3       2
       1       1       3       2       1       1       3       2       1       1
       3       2       1       1       3       2       1       1       3       2
       1       1       3       2       1       1       3       2       1       1
       3       2       1       1       3       2       1       1       3       2
       1       1       3       2       1       1       3       2       1       1
       3       2       1       1       3       2       1       1       3       2
       1       1       3       2       1       1       3       2       1       1
       3       2       1       1       3       2       1       1       3       2
       1       1       3       2       1       1       3       2       1       1
       3       2       1       1       3       2       1       1       3       2
       1       1       3       2       1       1       3       2       1       1
       3       2       1       1       3       2       1       1       3       2
       1       1       3       2       1       1       3       2       1       1
       3       2       1       1       3       2       1       1       3       2
       1       1       3       2       1       1       3       2       1       1
       3       2       1       1       3       2       1       1       3       2
       1       1       3       2       1       1       3       2       1       1
       3       2       1       1       3       2       1       1       3       2
       1       1       3       2       1       1       3       2       1       1
       3       2       1       1       3       2       1       1       3       2
       1       1       3       2       1       1       3       2       1       1
       3       2       1       1       3       2       1       1       3       2
       1       1       3       2       1       1       3       2       1       1
       3       2       1       1       3       2       1       1       3       2
       1       1       3       2       1       1       3       2       1       1
       3       2       1       1       3       2       1       1       3       2
       1       1       3       2       1       1       3       2       1       1
       3       2       1       1       3       2       1       1       3       2
       1       1       3       2       1       1       3       2       1       1
       3       2       1       1       3       2       1       1       3       2
       1       1       3       2       1       1       3       2       1       1
       3       2       1       1       3       2       1       1       3       2
       1       1       3       2       1       1       3       2       1       1
       3       2       1       1       3       2       1       1       3       2
       1       1       3       2       1       1       3       2       1       1
       3       2       1       1       3       2       1       1       3       2
       1       1       3       2       1       1       3       2       1       1
       3       2       1       1       3       2       1       1       3       2
       1       1       3       2       1       1       3       2       1       1
       3       2       1       1       3       2       1       1       3       2
       1       1       3       2       1       1       3       2       1       1
       3       2       1       1       3       2       1       1       3       2
       1       1       3       2       1       1       3       2       1       1
       3       2       1       1       3       2       1       1       3       2
       1       1       3       2       1       1       3       2       1       1
       3       2       1       1       3       2       1       1       3       2
       1       1       3       2       1       1       3       2       1       1
       3       2       1       1       3       2       1       1       3       2
       1       1       3       2       1       1       3       2       1       1
       3       2       1       1       3       2       1       1       3       2
       1       1       3       2       1       1       3       2       1       1
       3       2       1       1       3       2       1       1       3       2
       1       1       3       2       1       1       3       2       1       1
       3       2       1       1       3       2       1       1       3       2
       1       1       3       2       1       1       3       2       1       1
       3       2       1       1       3       2       1       1       3       2
       1       1       3       2       1       1       3       2       1       1
       3       2       1       1       3       2       1       1       3       2
       1       1       3       2       1       1       3       2       1       1
       3       2       1       1       3       2       1       1       3       2
       1       1       3       2       1       1       3       2       1       1
       3       2       1       1       3       2       1       1       3       2
       1       1       3       2       1       1       3       2       1       1
       3       2       1       1       3       2       1       1       3       2
       1       1       3       2       1       1       3       2       1       1
       3       2       1       1       3       2       1       1       3       2
       1       1       3       2       1       1       3       2       1       1
       3       2       1       1       3       2       1       1       3       2
       1       1       3       2       1       1       3       2       1       1
       3       2       1       1       3       2       1       1       3       2
       1       1       3       2       1       1       3       2       1       1
       3       2       1       1       3       2       1       1       3       2
       1       1       3       2       1       1       3       2       1       1
       3       2       1       1       3       2       1       1       3       2
       1       1       3       2       1       1       3       2       1       1
       3       2       1       1       3       2       1       1       3       2
       1       1       3       2       1       1       3       2       1       1
       3       2       1       1       3       2       1       1       3       2
       1       1       3       2       1       1       3       2       1       1
       3       2       1       1       3       2       1       1       3       2
       1       1       3       2       1       1       3       2       1       1
       3       2       1       1       3       2       1       1       3       2
       1       1       3       2       1       1       3       2       1       1
       3       2       1       1       3       2       1       1       3       2
       1       1       3       2       1       1       3       2       1       1
       3       2       1       1       3       2       1       1       3       2
       1       1       3       2       1       1       3       2       1       1
       3       2       1       1       3       2       1       1       3       2
       1       1       3       2       1       1       3       2       1       1
       3       2       1       1       3       2       1       1       3       2
       1       1       3       2       1       1       3       2       1       1
       3       2       1       1       3       2       1       1       3       2
       1       1       3       2       1       1       3       2       1       1
       3       2       1       1       3       2       1       1       3       2
       1       1       3       2       1       1       3       2       1       1
       3       2       1       1       3       2       1       1       3       2
       1       1       3       2       1       1       3       2       1       1
       3       2       1       1       3       2       1       1       3       2
       1       1       3       2       1       1       3       2       1       1
       3       2       1       1       3       2       1       1       3       2
       1       1       3       2       1       1       3       2       1       1
       3       2       1       1       3       2       1       1       3       2
       1       1       3       2       1       1       3       2       1       1
       3       2       1       1       3       2       1       1       3       2
       1       1       3       2       1       1       3       2       1       1
       3       2       1       1       3       2       1       1       3       2
       1       1       3       2       1       1       3       2       1       1
       3       2       1       1       3       2       1       1       3       2
       1       1       3       2       1       1       3       2       1       1
       3       2       1       1       3       2       1       1       3       2
       1       1       3       2       1       1       3       2       1       1
       3       2       1       1       3       2       1       1       3       2
       1       1       3       2       1       1       3       2       1       1
       3       2       1       1       3       2       1       1       3       2
       1       1       3       2       1       1       3       2       1       1
       3       2       1       1       3       2       1       1       3       2
       1       1       3       2       1       1       3       2       1       1
       3       2       1       1       3       2       1       1       3       2
       1       1       3       2       1       1       3       2       1       1
       3       2       1       1       3       2       1       1       3       2
       1       1       3       2       1       1       3       2       1       1
       3       2       1       1       3       2       1       1       3       2
       1       1       3       2       1       1       3       2       1       1
       3       2       1       1       3       2       1       1       3       2
       1       1       3       2       1       1       3       2       1       1
       3       2       1       1       3       2       1       1       3       2
       1       1       3       2       1       1       3       2       1       1
       3       2       1       1       3       2       1       1       3       2
       1       1       3       2       1       1       3       2       1       1
       3       2       1       1       3       2       1       1       3       2
       1       1       3       2       1       1       3       2       1       1
       3       2       1       1       3       2       1       1       3       2
       1       1       3       2       1       1       3       2       1       1
       3       2       1       1       3       2       1       1       3       2
       1       1       3       2       1       1       3       2       1       1
       3       2       1       1       3       2       1       1       3       2
       1       1       3       2       1       1       3       2       1       1
       3       2       1       1       3       2       1       1       3       2
       1       1       3       2       1       1       3       2       1       1
       3       2       1       1       3       2       1       1       3       2
       1       1       3       2       1       1       3       2       1       1
       3       2       1       1       3       2       1       1       3       2
       1       1       3       2       1       1       3       2       1       1
       3       2       1       1       3       2       1       1       3       2
       1       1       3       2       1       1       3       2       1       1
       3       2       1       1       3       2       1       1       3       2
       1       1       3       2       1       1       3       2       1       1
       3       2       1       1       3       2       1       1       3       2
       1       1       3       2       1       1       3       2       1       1
       3       2       1       1       3       2       1       1       3       2
       1       1       3       2       1       1       3       2       1       1
       3       2       1       1       3       2       1       1       3       2
       1       1       3       2       1       1       3       2       1       1
       3       2       1       1       3       2       1       1       3       2
       1       1       3       2       1       1       3       2       1       1
       3       2       1       1       3       2       1       1       3       2
       1       1       3       2       1       1       3       2       1       1
       3       2       1       1       3       2       1       1       3       2
       1       1       3       2       1       1       3       2       1       1
       3       2       1       1       3       2       1       1       3       2
       1       1       3       2       1       1       3       2       1       1
       3       2       1       1       3       2       1       1       3       2
       1       1       3       2       1       1       3       2       1       1
       3       2       1       1       3       2       1       1       3       2
       1       1       3       2       1       1       3       2       1       1
       3       2       1       1       3       2       1       1       3       2
       1       1       3       2       1       1       3       2       1       1
       3       2       1       1       3       2       1       1       3       2
       1       1       3       2       1       1       3       2       1       1
       3       2       1       1       3       2       1       1       3       2
       1       1       3       2       1       1       3       2       1       1
       3       2       1       1       3       2       1       1       3       2
       1       1       3       2       1       1       3       2       1       1
       3       2       1       1       3       2       1       1       3       2
       1       1       3       2       1       1       3       2       1       1
       3       2       1       1       3       2       1       1       3       2
       1       1       3       2       1       1       3       2       1       1
       3       2       1       1       3       2       1       1       3       2
       1       1       3       2       1       1       3       2       1       1
       3       2       1       1       3       2       1       1       3       2
       1       1       3       2       1       1       3       2       1       1
       3       2       1       1       3       2       1       1       3       2
       1       1       3       2       1       1       3       2       1       1
       3       2       1       1       3       2       1       1       3       2
       1       1       3       2       1       1       3       2       1       1
       3       2       1       1       3       2       1       1       3       2
       1       1       3       2       1       1       3       2       1       1
       3       2       1       1       3       2       1       1       3       2
       1       1       3       2       1       1       3       2       1       1
       3       2       1       1       3       2       1       1       3       2
       1       1       3       2       1       1       3       2       1       1
       3       2       1       1       3       2       1       1       3       2
       1       1       3       2       1       1       3       2       1       1
       3       2       1       1       3       2       1       1       3       2
       1       1       3       2       1       1       3       2       1       1
       3       2       1       1       3       2       1       1       3       2
       1       1       3       2       1       1       3       2       1       1
       3       2       1       1       3       2       1       1       3       2
       1       1       3       2       1       1       3       2       1       1
       3       2       1       1       3       2       1       1       3       2
       1       1       3       2       1       1       3       2       1       1
       3       2       1       1       3       2       1       1       3       2
       1       1       3       2       1       1       3       2       1       1
       3       2       1       1       3       2       1       1       3       2
       1       1       3       2       1       1       3       2       1       1
       3       2       1       1       3       2       1       1       3       2
       1       1       3       2       1       1       3       2       1       1
       3       2       1       1       3       2       1       1       3       2
       1       1       3       2       1       1       3       2       1       1
       3       2       1       1       3       2       1       1       3       2
       1       1       3       2       1       1       3       2       1       1
       3       2       1       1       3       2       1       1       3       2
       1       1       3       2       1       1       3       2       1       1
       3       2       1       1       3       2       1       1       3       2
       1       1       3       2       1       1       3       2       1       1
       3       2       1       1       3       2       1       1       3       2
       1       1       3       2       1       1       3       2       1       1
       3       2       1       1       3       2       1       1       3       2
       1       1       3       2       1       1       3       2       1       1
       3       2       1       1       3       2       1       1       3       2
       1       1       3       2       1       1       3       2       1       1
       3       2       1       1       3       2       1       1       3       2
       1       1       3       2       1       1       3       2       1       1
       3       2       1       1       3       2       1       1       3       2
       1       1       3       2       1       1       3       2       1       1
       3       2       1       1       3       2       1       1       3       2
       1       1       3       2       1       1       3       2       1       1
       3       2       1       1       3       2       1       1       3       2
       1       1       3       2       1       1       3       2       1       1
       3       2       1       1       3       2       1       1       3       2
       1       1       3       2       1       1       3       2       1       1
       3       2       1       1       3       2       1       1       3       2
       1       1       3       2       1       1       3       2       1       1
       3       2       1       1       3       2       1       1       3       2
       1       1       3       2       1       1       3       2       1       1
       3       2       1       1       3       2       1       1       3       2
       1       1       3       2       1       1       3       2       1       1
       3       2       1       1       3       2       1       1       3       2
       1       1       3       2       1       1       3       2       1       1
       3       2       1       1       3       2       1       1       3       2
       1       1       3       2       1       1       3       2       1       1
       3       2       1       1       3       2       1       1       3       2
       1       1       3       2       1       1       3       2       1       1
       3       2       1       1       3       2       1       1       3       2
       1       1       3       2       1       1       3       2       1       1
       3       2       1       1       3       2       1       1       3       2
       1       1       3       2       1       1       3       2       1       1
       3       2       1       1       3       2       1       1       3       2
       1       1       3       2       1       1       3       2       1       1
       3       2       1       1       3       2       1       1       3       2
       1       1       3       2       1       1       3       2       1       1
       3       2       1       1       3       2       1       1       3       2
       1       1       3       2       1       1       3       2       1       1
       3       2       1       1       3       2       1       1       3       2
       1       1       3       2       1       1       3       2       1       1
       3       2       1       1       3       2       1       1       3       2
       1       1       3       2       1       1       3       2       1       1
       3       2       1       1       3       2       1       1       3       2
       1       1       3       2       1       1       3       2       1       1
       3       2       1       1       3       2       1       1       3       2
       1       1       3       2       1       1       3       2       1       1
       3       2       1       1       3       2       1       1       3       2
       1       1       3       2       1       1       3       2       1       1
       3       2       1       1       3       2       1       1       3       2
       1       1       3       2       1       1       3       2       1       1
       3       2       1       1       3       2       1       1       3       2
       1       1       3       2       1       1       3       2       1       1
       3       2       1       1       3       2       1       1       3       2
       1       1       3       2       1       1       3       2       1       1
       3       2       1       1       3       2       1       1       3       2
       1       1       3       2       1       1       3       2       1       1
       3       2       1       1       3       2       1       1       3       2
       1       1       3       2       1       1       3       2       1       1
       3       2       1       1       3       2       1       1       3       2
       1       1       3       2       1       1       3       2       1       1
       3       2       1       1       3       2       1       1       3       2
       1       1       3       2       1       1       3       2       1       1
       3       2       1       1       3       2       1       1       3       2
       1       1       3       2       1       1       3       2       1       1
       3       2       1       1       3       2       1       1       3       2
       1       1       3       2       1       1       3       2       1       1
       3       2       1       1       3       2       1       1       3       2
       1       1       3       2       1       1       3       2       1       1
       3       2       1       1       3       2       1       1       3       2
       1       1       3       2       1       1       3       2       1       1
       3       2       1       1       3       2       1       1       3       2
       1       1       3       2       1       1       3       2       1       1
       3       2       1       1       3       2       1       1       3       2
       1       1       3       2       1       1       3       2       1       1
       3       2       1       1       3       2       1       1       3       2
       1       1       3       2       1       1       3       2       1       1
       3       2       1       1       3       2       1       1       3       2
       1       1       3       2       1       1       3       2       1       1
       3       2       1       1       3       2       1       1       3       2
       1       1       3       2       1       1       3       2       1       1
       3       2       1       1       3       2       1       1       3       2
       1       1       3       2       1       1       3       2       1       1
       3       2       1       1       3       2       1       1       3       2
       1       1       3       2       1       1       3       2       1       1
       3       2       1       1       3       2       1       1       3       2
       1       1       3       2       1       1       3       2       1       1
       3       2       1       1       3       2       1       1       3       2
       1       1       3       2       1       1       3       2       1       1
       3       2       1       1       3       2       1       1       3       2
       1       1       3       2       1       1       3       2       1       1
       3       2       1       1       3       2       1       1       3       2
       1       1       3       2       1       1       3       2       1       1
       3       2       1       1       3       2       1       1       3       2
       1       1       3       2       1       1       3       2       1       1
       3       2       1       1       3       2       1       1       3       2
       1       1       3       2       1       1       3       2       1       1
       3       2       1       1       3       2       1       1       3       2
       1       1       3       2       1       1       3       2       1       1
       3       2       1       1       3       2       1       1       3       2
       1       1       3       2       1       1       3       2       1       1
       3       2       1       1       3       2       1       1       3       2
       1       1       3       2       1       1       3       2       1       1
       3       2       1       1       3       2       1       1       3       2
       1       1       3       2       1       1       3       2       1       1
       3       2       1       1       3       2       1       1       3       2
       1       1       3       2       1       1       3       2       1       1
       3       2       1       1       3       2       1       1       3       2
       1       1       3       2       1       1       3       2       1       1
       3       2       1       1       3       2       1       1       3       2
       1       1       3       2       1       1       3       2       1       1
       3       2       1       1       3       2       1       1       3       2
       1       1       3       2       1       1       3       2       1       1
       3       2       1       1       3       2       1       1       3       2
       1       1       3       2       1       1       3       2       1       1
       3       2       1       1       3       2       1       1       3       2
       1       1       3       2       1       1       3       2       1       1
       3       2       1       1       3       2       1       1       3       2
       1       1       3       2       1       1       3       2       1       1
       3       2       1       1       3       2       1       1       3       2
       1       1       3       2       1       1       3       2       1       1
       3       2       1       1       3       2       1       1       3       2
       1       1       3       2       1       1       3       2       1       1
       3       2       1       1       3       2       1       1       3       2
       1       1       3       2       1       1       3       2       1       1
       3       2       1       1       3       2       1       1       3       2
       1       1       3       2       1       1       3       2       1       1
       3       2       1       1       3       2       1       1       3       2
       1       1       3       2       1       1       3       2       1       1
       3       2       1       1       3       2       1       1       3       2
       1       1       3       2       1       1       3       2       1       1
       3       2       1       1       3       2       1       1       3       2
       1       1       3       2       1       1       3       2       1       1
       3       2       1       1       3       2       1       1       3       2
       1       1       3       2       1       1       3       2       1       1
       3       2       1       1       3       2       1       1       3       2
       1       1       3       2       1       1       3       2       1       1
       3       2       1       1       3       2       1       1       3       2
       1       1       3       2       1       1       3       2       1       1
       3       2       1       1       3       2       1       1       3       2
       1       1       3       2       1       1       3       2       1       1
       3       2       1       1       3       2       1       1       3       2
       1       1       3       2       1       1       3       2       1       1
       3       2       1       1       3       2       1       1       3       2
       1       1       3       2       1       1       3       2       1       1
       3       2       1       1       3       2       1       1       3       2
       1       1       3       2       1       1       3       2       1       1
       3       2       1       1       3       2       1       1       3       2
       1       1       3       2       1       1       3       2       1       1
       3       2       1       1       3       2       1       1       3       2
       1       1       3       2       1       1       3       2       1       1
       3       2       1       1       3       2       1       1       3       2
       1       1       3       2       1       1       3       2       1       1
       3       2       1       1       3       2       1       1       3       2
       1       1       3       2       1       1       3       2       1       1
       3       2       1       1       3       2       1       1       3       2
       1       1       3       2       1       1       3       2       1       1
       3       2       1       1       3       2       1       1       3       2
       1       1       3       2       1       1       3       2       1       1
       3       2       1       1       3       2       1       1       3       2
       1       1       3       2       1       1       3       2       1       1
       3       2       1       1       3       2       1       1       3       2
       1       1       3       2       1       1       3       2       1       1
       3       2       1       1       3       2       1       1       3       2
       1       1       3       2       1       1       3       2       1       1
       3       2       1       1       3       2       1       1       3       2
       1       1       3       2       1       1       3       2       1       1
       3       2       1       1       3       2       1       1       3       2
       1       1       3       2       1       1       3       2       1       1
       3       2       1       1       3       2       1       1       3       2
       1       1       3       2       1       1       3       2       1       1
       3       2       1       1       3       2       1       1       3       2
       1       1       3       2       1       1       3       2       1       1
       3       2       1       1       3       2       1       1       3       2
       1       1       3       2       1       1       3       2       1       1
       3       2       1       1       3       2       1       1       3       2
       1       1       3       2       1       1       3       2       1       1
       3       2       1       1       3       2       1       1       3       2
       1       1       3       2       1       1       3       2       1       1
       3       2       1       1       3       2       1       1       3       2
       1       1       3       2       1       1       3       2       1       1
       3       2       1       1       3       2       1       1       3       2
       1       1       3       2       1       1       3       2       1       1
       3       2       1       1       3       2       1       1       3       2
       1       1       3       2       1       1       3       2       1       1
       3       2       1       1       3       2       1       1       3       2
       1       1       3       2       1       1       3       2       1       1
       3       2       1       1       3       2       1       1       3       2
       1       1       3       2       1       1       3       2       1       1
       3       2       1       1       3       2       1       1       3       2
       1       1       3       2       1       1       3       2       1       1
       3       2       1       1       3       2       1       1       3       2
       1       1       3       2       1       1       3       2       1       1
       3       2       1       1       3       2       1       1       3       2
       1       1       3       2       1       1       3       2       1       1
       3       2       1       1       3       2       1       1       3       2
       1       1       3       2       1       1       3       2       1       1
       3       2       1       1       3       2       1       1       3       2
       1       1       3       2       1       1       3       2       1       1
       3       2       1       1       3       2       1       1       3       2
       1       1       3       2       1       1       3       2       1       1
       3       2       1       1       3       2       1       1       3       2
       1       1       3       2       1       1       3       2       1       1
       3       2       1       1       3       2       1       1       3       2
       1       1       3       2       1       1       3       2       1       1
       3       2       1       1       3       2       1       1       3       2
       1       1       3       2       1       1       3       2       1       1
       3       2       1       1       3       2       1       1       3       2
       1       1       3       2       1       1       3       2       1       1
       3       2       1       1       3       2       1       1       3       2
       1       1       3       2       1       1       3       2       1       1
       3       2       1       1       3       2       1       1       3       2
       1       1       3       2       1       1       3       2       1       1
       3       2       1       1       3       2       1       1       3       2
       1       1       3       2       1       1       3       2       1       1
       3       2       1       1       3       2       1       1       3       2
       1       1       3       2       1       1       3       2       1       1
       3       2       1       1       3       2       1       1       3       2
       1       1       3       2       1       1       3       2       1       1
       3       2       1       1       3       2       1       1       3       2
       1       1       3       2       1       1       3       2       1       1
       3       2       1       1       3       2       1       1       3       2
       1       1       3       2       1       1       3       2       1       1
       3       2       1       1       3       2       1       1       3       2
       1       1       3       2       1       1
%FLAG NONBONDED_PARM_INDEX
%FORMAT(10I8)
       1       2       4       7      11      16      22      29      37      46
      56      67      79      92     106     121     137     154     172     191
     211     232     254     277     301     326     352       2       3       5
       8      12      17      23      30      38      47      57      68      80
      93     107     122     138     155     173     192     212     233     255
     278     302     327     353       4       5       6       9      13      18
      24      31      39      48      58      69      81      94     108     123
     139     156     174     193     213     234     256     279     303     328
     354       7       8       9      10      14      19      25      32      40
      49      59      70      82      95     109     124     140     157     175
     194     214     235     257     280     304     329     355      11      12
      13      14      15      20      26      33      41      50      60      71
      83      96     110     125     141     158     176     195     215     236
     258     281     305     330     356      16      17      18      19      20
      21      27      34      42      51      61      72      84      97     111
     126     142     159     177     196     216     237     259     282     306
     331     357      22      23      24      25      26      27      28      35
      43      52      62      73      85      98     112     127     143     160
     178     197     217     238     260     283     307     332     358      29
      30      31      32      33      34      35      36      44      53      63
      74      86      99     113     128     144     161     179     198     218
     239     261     284     308     333     359      37      38      39      40
      41      42      43      44      45      54      64      75      87     100
     114     129     145     162     180     199     219     240     262     285
     309     334     360      46      47      48      49      50      51      52
      53      54      55      65      76      88     101     115     130     146
     163     181     200     220     241     263     286     310     335     361
      56      57      58      59      60      61      62      63      64      65
      66      77      89     102     116     131     147     164     182     201
     221     242     264     287     311     336     362      67      68      69
      70      71      72      73      74      75      76      77      78      90
     103     117     132     148     165     183     202     222     243     265
     288     312     337     363      79      80      81      82      83      84
      85      86      87      88      89      90      91     104     118     133
     149     166     184     203     223     244     266     289     313     338
     364      92      93      94      95      96      97      98      99     100
     101     102     103     104     105     119     134     150     167     185
     204     224     245     267     290     314     339     365     106     107
     108     109     110     111     112     113     114     115     116     117
     118     119     120     135     151     168     186     205     225     246
     268     291     315     340     366     121     122     123     124     125
     126     127     128     129     130     131     132     133     134     135
     136     152     169     187     206     226     247     269     292     316
     341     367     137     138     139     140     141     142     143     144
     145     146     147     148     149     150     151     152     153     170
     188     207     227     248     270     293     317     342     368     154
     155     156     157     158     159     160     161     162     163     164
     165     166     167     168     169     170     171     189     208     228
     249     271     294     318     343     369     172     173     174     175
     176     177     178     179     180     181     182     183     184     185
     186     187     188     189     190     209     229     250     272     295
     319     344     370     191     192     193     194     195     196     197
     198     199     200     201     202     203     204     205     206     207
     208     209     210     230     251     273     296     320     345     371
     211     212     213     214     215     216     217     218     219     220
     221     222     223     224     225     226     227     228     229     230
     231     252     274     297     321     346     372     232     233     234
     235     236     237     238     239     240     241     242     243     244
     245     246     247     248     249     250     251     252     253     275
     298     322     347     373     254     255     256     257     258     259
     260     261     262     263     264     265     266     267     268     269
     270     271     272     273     274     275     276     299     323     348
     374     277     278     279     280     281     282     283     284     285
     286     287     288     289     290     291     292     293     294     295
     296     297     298     299     300     324     349     375     301     302
     303     304     305     306     307     308     309     310     311     312
     313     314     315     316     317     318     319     320     321     322
     323     324     325     350     376     326     327     328     329     330
     331     332     333     334     335     336     337     338     339     340
     341     342     343     344     345     346     347     348     349     350
     351     377     352     353     354     355     356     357     358     359
     360     361     362     363     364     365     366     367     368     369
     370     371     372     373     374     375     376     377     378
%FLAG RESIDUE_LABEL
%FORMAT(20a4)
SER LEU ALA HIE SER LEU VAL THR LYS LEU MOL Cl- Na+ Na+ Na+ Na+ Na+ Na+ Na+ Cl- 
Cl- Cl- Cl- Cl- Cl- Cl- WAT WAT WAT WAT WAT WAT WAT WAT WAT WAT WAT WAT WAT WAT 
WAT WAT WAT WAT WAT WAT WAT WAT WAT WAT WAT WAT WAT WAT WAT WAT WAT WAT WAT WAT 
WAT WAT WAT WAT WAT WAT WAT WAT WAT WAT WAT WAT WAT WAT WAT WAT WAT WAT WAT WAT 
WAT WAT WAT WAT WAT WAT WAT WAT WAT WAT WAT WAT WAT WAT WAT WAT WAT WAT WAT WAT 
WAT WAT WAT WAT WAT WAT WAT WAT WAT WAT WAT WAT WAT WAT WAT WAT WAT WAT WAT WAT 
WAT WAT WAT WAT WAT WAT WAT WAT WAT WAT WAT WAT WAT WAT WAT WAT WAT WAT WAT WAT 
WAT WAT WAT WAT WAT WAT WAT WAT WAT WAT WAT WAT WAT WAT WAT WAT WAT WAT WAT WAT 
WAT WAT WAT WAT WAT WAT WAT WAT WAT WAT WAT WAT WAT WAT WAT WAT WAT WAT WAT WAT 
WAT WAT WAT WAT WAT WAT WAT WAT WAT WAT WAT WAT WAT WAT WAT WAT WAT WAT WAT WAT 
WAT WAT WAT WAT WAT WAT WAT WAT WAT WAT WAT WAT WAT WAT WAT WAT WAT WAT WAT WAT 
WAT WAT WAT WAT WAT WAT WAT WAT WAT WAT WAT WAT WAT WAT WAT WAT WAT WAT WAT WAT 
WAT WAT WAT WAT WAT WAT WAT WAT WAT WAT WAT WAT WAT WAT WAT WAT WAT WAT WAT WAT 
WAT WAT WAT WAT WAT WAT WAT WAT WAT WAT WAT WAT WAT WAT WAT WAT WAT WAT WAT WAT 
WAT WAT WAT WAT WAT WAT WAT WAT WAT WAT WAT WAT WAT WAT WAT WAT WAT WAT WAT WAT 
WAT WAT WAT WAT WAT WAT WAT WAT WAT WAT WAT WAT WAT WAT WAT WAT WAT WAT WAT WAT 
WAT WAT WAT WAT WAT WAT WAT WAT WAT WAT WAT WAT WAT WAT WAT WAT WAT WAT WAT WAT 
WAT WAT WAT WAT WAT WAT WAT WAT WAT WAT WAT WAT WAT WAT WAT WAT WAT WAT WAT WAT 
WAT WAT WAT WAT WAT WAT WAT WAT WAT WAT WAT WAT WAT WAT WAT WAT WAT WAT WAT WAT 
WAT WAT WAT WAT WAT WAT WAT WAT WAT WAT WAT WAT WAT WAT WAT WAT WAT WAT WAT WAT 
WAT WAT WAT WAT WAT WAT WAT WAT WAT WAT WAT WAT WAT WAT WAT WAT WAT WAT WAT WAT 
WAT WAT WAT WAT WAT WAT WAT WAT WAT WAT WAT WAT WAT WAT WAT WAT WAT WAT WAT WAT 
WAT WAT WAT WAT WAT WAT WAT WAT WAT WAT WAT WAT WAT WAT WAT WAT WAT WAT WAT WAT 
WAT WAT WAT WAT WAT WAT WAT WAT WAT WAT WAT WAT WAT WAT WAT WAT WAT WAT WAT WAT 
WAT WAT WAT WAT WAT WAT WAT WAT WAT WAT WAT WAT WAT WAT WAT WAT WAT WAT WAT WAT 
WAT WAT WAT WAT WAT WAT WAT WAT WAT WAT WAT WAT WAT WAT WAT WAT WAT WAT WAT WAT 
WAT WAT WAT WAT WAT WAT WAT WAT WAT WAT WAT WAT WAT WAT WAT WAT WAT WAT WAT WAT 
WAT WAT WAT WAT WAT WAT WAT WAT WAT WAT WAT WAT WAT WAT WAT WAT WAT WAT WAT WAT 
WAT WAT WAT WAT WAT WAT WAT WAT WAT WAT WAT WAT WAT WAT WAT WAT WAT WAT WAT WAT 
WAT WAT WAT WAT WAT WAT WAT WAT WAT WAT WAT WAT WAT WAT WAT WAT WAT WAT WAT WAT 
WAT WAT WAT WAT WAT WAT WAT WAT WAT WAT WAT WAT WAT WAT WAT WAT WAT WAT WAT WAT 
WAT WAT WAT WAT WAT WAT WAT WAT WAT WAT WAT WAT WAT WAT WAT WAT WAT WAT WAT WAT 
WAT WAT WAT WAT WAT WAT WAT WAT WAT WAT WAT WAT WAT WAT WAT WAT WAT WAT WAT WAT 
WAT WAT WAT WAT WAT WAT WAT WAT WAT WAT WAT WAT WAT WAT WAT WAT WAT WAT WAT WAT 
WAT WAT WAT WAT WAT WAT WAT WAT WAT WAT WAT WAT WAT WAT WAT WAT WAT WAT WAT WAT 
WAT WAT WAT WAT WAT WAT WAT WAT WAT WAT WAT WAT WAT WAT WAT WAT WAT WAT WAT WAT 
WAT WAT WAT WAT WAT WAT WAT WAT WAT WAT WAT WAT WAT WAT WAT WAT WAT WAT WAT WAT 
WAT WAT WAT WAT WAT WAT WAT WAT WAT WAT WAT WAT WAT WAT WAT WAT WAT WAT WAT WAT 
WAT WAT WAT WAT WAT WAT WAT WAT WAT WAT WAT WAT WAT WAT WAT WAT WAT WAT WAT WAT 
WAT WAT WAT WAT WAT WAT WAT WAT WAT WAT WAT WAT WAT WAT WAT WAT WAT WAT WAT WAT 
WAT WAT WAT WAT WAT WAT WAT WAT WAT WAT WAT WAT WAT WAT WAT WAT WAT WAT WAT WAT 
WAT WAT WAT WAT WAT WAT WAT WAT WAT WAT WAT WAT WAT WAT WAT WAT WAT WAT WAT WAT 
WAT WAT WAT WAT WAT WAT WAT WAT WAT WAT WAT WAT WAT WAT WAT WAT WAT WAT WAT WAT 
WAT WAT WAT WAT WAT WAT WAT WAT WAT WAT WAT WAT WAT WAT WAT WAT WAT WAT WAT WAT 
WAT WAT WAT WAT WAT WAT WAT WAT WAT WAT WAT WAT WAT WAT WAT WAT WAT WAT WAT WAT 
WAT WAT WAT WAT WAT WAT WAT WAT WAT WAT WAT WAT WAT WAT WAT WAT WAT WAT WAT WAT 
WAT WAT WAT WAT WAT WAT WAT WAT WAT WAT WAT WAT WAT WAT WAT WAT WAT WAT WAT WAT 
WAT WAT WAT WAT WAT WAT WAT WAT WAT WAT WAT WAT WAT WAT WAT WAT WAT WAT WAT WAT 
WAT WAT WAT WAT WAT WAT WAT WAT WAT WAT WAT WAT WAT WAT WAT WAT WAT WAT WAT WAT 
WAT WAT WAT WAT WAT WAT WAT WAT WAT WAT WAT WAT WAT WAT WAT WAT WAT WAT WAT WAT 
WAT WAT WAT WAT WAT WAT WAT WAT WAT WAT WAT WAT WAT WAT WAT WAT WAT WAT WAT WAT 
WAT WAT WAT WAT WAT WAT WAT WAT WAT WAT WAT WAT WAT WAT WAT WAT WAT WAT WAT WAT 
WAT WAT WAT WAT WAT WAT WAT WAT WAT WAT WAT WAT WAT WAT WAT WAT WAT WAT WAT WAT 
WAT WAT WAT WAT WAT WAT WAT WAT WAT WAT WAT WAT WAT WAT WAT WAT WAT WAT WAT WAT 
WAT WAT WAT WAT WAT WAT WAT WAT WAT WAT WAT WAT WAT WAT WAT WAT WAT WAT WAT WAT 
WAT WAT WAT WAT WAT WAT WAT WAT WAT WAT WAT WAT WAT WAT WAT WAT WAT WAT WAT WAT 
WAT WAT WAT WAT WAT WAT WAT WAT WAT WAT WAT WAT WAT WAT WAT WAT WAT WAT WAT WAT 
WAT WAT WAT WAT WAT WAT WAT WAT WAT WAT WAT WAT WAT WAT WAT WAT WAT WAT WAT WAT 
WAT WAT WAT WAT WAT WAT WAT WAT WAT WAT WAT WAT WAT WAT WAT WAT WAT WAT WAT WAT 
WAT WAT WAT WAT WAT WAT WAT WAT WAT WAT WAT WAT WAT WAT WAT WAT WAT WAT WAT WAT 
WAT WAT WAT WAT WAT WAT WAT WAT WAT WAT WAT WAT WAT WAT WAT WAT WAT WAT WAT WAT 
WAT WAT WAT WAT WAT WAT WAT WAT WAT WAT WAT WAT WAT WAT WAT WAT WAT WAT WAT WAT 
WAT WAT WAT WAT WAT WAT WAT WAT WAT WAT WAT WAT WAT WAT WAT WAT WAT WAT WAT WAT 
WAT WAT WAT WAT WAT WAT WAT WAT WAT WAT WAT WAT WAT WAT WAT WAT WAT WAT WAT WAT 
WAT WAT WAT WAT WAT WAT WAT WAT WAT WAT WAT WAT WAT WAT WAT WAT WAT WAT WAT WAT 
WAT WAT WAT WAT WAT WAT WAT WAT WAT WAT WAT WAT WAT WAT WAT WAT WAT WAT WAT WAT 
WAT WAT WAT WAT WAT WAT WAT WAT WAT WAT WAT WAT WAT WAT WAT WAT WAT WAT WAT WAT 
WAT WAT WAT WAT WAT WAT WAT WAT WAT WAT WAT WAT WAT WAT WAT WAT WAT WAT WAT WAT 
WAT WAT WAT WAT WAT WAT WAT WAT WAT WAT WAT WAT WAT WAT WAT WAT WAT WAT WAT WAT 
WAT WAT WAT WAT WAT WAT WAT WAT WAT WAT WAT WAT WAT WAT WAT WAT WAT WAT WAT WAT 
WAT WAT WAT WAT WAT WAT WAT WAT WAT WAT WAT WAT WAT WAT WAT WAT WAT WAT WAT WAT 
WAT WAT WAT WAT WAT WAT WAT WAT WAT WAT WAT WAT WAT WAT WAT WAT WAT WAT WAT WAT 
WAT WAT WAT WAT WAT WAT WAT WAT WAT WAT WAT WAT WAT WAT WAT WAT WAT WAT WAT WAT 
WAT WAT WAT WAT WAT WAT WAT WAT WAT WAT WAT WAT WAT WAT WAT WAT WAT WAT WAT WAT 
WAT WAT WAT WAT WAT WAT WAT WAT WAT WAT WAT WAT WAT WAT WAT WAT WAT WAT WAT WAT 
WAT WAT WAT WAT WAT WAT WAT WAT WAT WAT WAT WAT WAT WAT WAT WAT WAT WAT WAT WAT 
WAT WAT WAT WAT WAT WAT WAT WAT WAT WAT WAT WAT WAT WAT WAT WAT WAT WAT WAT WAT 
WAT WAT WAT WAT WAT WAT WAT WAT WAT WAT WAT WAT WAT WAT WAT WAT WAT WAT WAT WAT 
WAT WAT WAT WAT WAT WAT WAT WAT WAT WAT WAT WAT WAT WAT WAT WAT WAT WAT WAT WAT 
WAT WAT WAT WAT WAT WAT WAT WAT WAT WAT WAT WAT WAT WAT WAT WAT WAT WAT WAT WAT 
WAT WAT WAT WAT WAT WAT WAT WAT WAT WAT WAT WAT WAT WAT WAT WAT WAT WAT WAT WAT 
WAT WAT WAT WAT WAT WAT WAT WAT WAT WAT WAT WAT WAT WAT WAT WAT WAT WAT WAT WAT 
WAT WAT WAT WAT WAT WAT WAT WAT WAT WAT WAT WAT WAT WAT WAT WAT WAT WAT WAT WAT 
WAT WAT WAT WAT WAT WAT WAT WAT WAT WAT WAT WAT WAT WAT WAT WAT WAT WAT WAT WAT 
WAT WAT WAT WAT WAT WAT WAT WAT WAT WAT WAT WAT WAT WAT WAT WAT WAT WAT WAT WAT 
WAT WAT WAT WAT WAT WAT WAT WAT WAT WAT WAT WAT WAT WAT WAT WAT WAT WAT WAT WAT 
WAT WAT WAT WAT WAT WAT WAT WAT WAT WAT WAT WAT WAT WAT WAT WAT WAT WAT WAT WAT 
WAT WAT WAT WAT WAT WAT WAT WAT WAT WAT WAT WAT WAT WAT WAT WAT WAT WAT WAT WAT 
WAT WAT WAT WAT WAT WAT WAT WAT WAT WAT WAT WAT WAT WAT WAT WAT WAT WAT WAT WAT 
WAT WAT WAT WAT WAT WAT WAT WAT WAT WAT WAT WAT WAT WAT WAT WAT WAT WAT WAT WAT 
WAT WAT WAT WAT WAT WAT WAT WAT WAT WAT WAT WAT WAT WAT WAT WAT WAT WAT WAT WAT 
WAT WAT WAT WAT WAT WAT WAT WAT WAT WAT WAT WAT WAT WAT WAT WAT WAT WAT WAT WAT 
WAT WAT WAT WAT WAT WAT WAT WAT WAT WAT WAT WAT WAT WAT WAT WAT WAT WAT WAT WAT 
WAT WAT WAT WAT WAT WAT WAT WAT WAT WAT WAT WAT WAT WAT WAT WAT WAT WAT WAT WAT 
WAT WAT WAT WAT WAT WAT WAT WAT WAT WAT WAT WAT WAT 
%FLAG RESIDUE_POINTER
%FORMAT(10I8)
       1      14      33      43      60      72      93     109     123     145
     165     204     205     206     207     208     209     210     211     212
     213     214     215     216     217     218     219     223     227     231
     235     239     243     247     251     255     259     263     267     271
     275     279     283     287     291     295     299     303     307     311
     315     319     323     327     331     335     339     343     347     351
     355     359     363     367     371     375     379     383     387     391
     395     399     403     407     411     415     419     423     427     431
     435     439     443     447     451     455     459     463     467     471
     475     479     483     487     491     495     499     503     507     511
     515     519     523     527     531     535     539     543     547     551
     555     559     563     567     571     575     579     583     587     591
     595     599     603     607     611     615     619     623     627     631
     635     639     643     647     651     655     659     663     667     671
     675     679     683     687     691     695     699     703     707     711
     715     719     723     727     731     735     739     743     747     751
     755     759     763     767     771     775     779     783     787     791
     795     799     803     807     811     815     819     823     827     831
     835     839     843     847     851     855     859     863     867     871
     875     879     883     887     891     895     899     903     907     911
     915     919     923     927     931     935     939     943     947     951
     955     959     963     967     971     975     979     983     987     991
     995     999    1003    1007    1011    1015    1019    1023    1027    1031
    1035    1039    1043    1047    1051    1055    1059    1063    1067    1071
    1075    1079    1083    1087    1091    1095    1099    1103    1107    1111
    1115    1119    1123    1127    1131    1135    1139    1143    1147    1151
    1155    1159    1163    1167    1171    1175    1179    1183    1187    1191
    1195    1199    1203    1207    1211    1215    1219    1223    1227    1231
    1235    1239    1243    1247    1251    1255    1259    1263    1267    1271
    1275    1279    1283    1287    1291    1295    1299    1303    1307    1311
    1315    1319    1323    1327    1331    1335    1339    1343    1347    1351
    1355    1359    1363    1367    1371    1375    1379    1383    1387    1391
    1395    1399    1403    1407    1411    1415    1419    1423    1427    1431
    1435    1439    1443    1447    1451    1455    1459    1463    1467    1471
    1475    1479    1483    1487    1491    1495    1499    1503    1507    1511
    1515    1519    1523    1527    1531    1535    1539    1543    1547    1551
    1555    1559    1563    1567    1571    1575    1579    1583    1587    1591
    1595    1599    1603    1607    1611    1615    1619    1623    1627    1631
    1635    1639    1643    1647    1651    1655    1659    1663    1667    1671
    1675    1679    1683    1687    1691    1695    1699    1703    1707    1711
    1715    1719    1723    1727    1731    1735    1739    1743    1747    1751
    1755    1759    1763    1767    1771    1775    1779    1783    1787    1791
    1795    1799    1803    1807    1811    1815    1819    1823    1827    1831
    1835    1839    1843    1847    1851    1855    1859    1863    1867    1871
    1875    1879    1883    1887    1891    1895    1899    1903    1907    1911
    1915    1919    1923    1927    1931    1935    1939    1943    1947    1951
    1955    1959    1963    1967    1971    1975    1979    1983    1987    1991
    1995    1999    2003    2007    2011    2015    2019    2023    2027    2031
    2035    2039    2043    2047    2051    2055    2059    2063    2067    2071
    2075    2079    2083    2087    2091    2095    2099    2103    2107    2111
    2115    2119    2123    2127    2131    2135    2139    2143    2147    2151
    2155    2159    2163    2167    2171    2175    2179    2183    2187    2191
    2195    2199    2203    2207    2211    2215    2219    2223    2227    2231
    2235    2239    2243    2247    2251    2255    2259    2263    2267    2271
    2275    2279    2283    2287    2291    2295    2299    2303    2307    2311
    2315    2319    2323    2327    2331    2335    2339    2343    2347    2351
    2355    2359    2363    2367    2371    2375    2379    2383    2387    2391
    2395    2399    2403    2407    2411    2415    2419    2423    2427    2431
    2435    2439    2443    2447    2451    2455    2459    2463    2467    2471
    2475    2479    2483    2487    2491    2495    2499    2503    2507    2511
    2515    2519    2523    2527    2531    2535    2539    2543    2547    2551
    2555    2559    2563    2567    2571    2575    2579    2583    2587    2591
    2595    2599    2603    2607    2611    2615    2619    2623    2627    2631
    2635    2639    2643    2647    2651    2655    2659    2663    2667    2671
    2675    2679    2683    2687    2691    2695    2699    2703    2707    2711
    2715    2719    2723    2727    2731    2735    2739    2743    2747    2751
    2755    2759    2763    2767    2771    2775    2779    2783    2787    2791
    2795    2799    2803    2807    2811    2815    2819    2823    2827    2831
    2835    2839    2843    2847    2851    2855    2859    2863    2867    2871
    2875    2879    2883    2887    2891    2895    2899    2903    2907    2911
    2915    2919    2923    2927    2931    2935    2939    2943    2947    2951
    2955    2959    2963    2967    2971    2975    2979    2983    2987    2991
    2995    2999    3003    3007    3011    3015    3019    3023    3027    3031
    3035    3039    3043    3047    3051    3055    3059    3063    3067    3071
    3075    3079    3083    3087    3091    3095    3099    3103    3107    3111
    3115    3119    3123    3127    3131    3135    3139    3143    3147    3151
    3155    3159    3163    3167    3171    3175    3179    3183    3187    3191
    3195    3199    3203    3207    3211    3215    3219    3223    3227    3231
    3235    3239    3243    3247    3251    3255    3259    3263    3267    3271
    3275    3279    3283    3287    3291    3295    3299    3303    3307    3311
    3315    3319    3323    3327    3331    3335    3339    3343    3347    3351
    3355    3359    3363    3367    3371    3375    3379    3383    3387    3391
    3395    3399    3403    3407    3411    3415    3419    3423    3427    3431
    3435    3439    3443    3447    3451    3455    3459    3463    3467    3471
    3475    3479    3483    3487    3491    3495    3499    3503    3507    3511
    3515    3519    3523    3527    3531    3535    3539    3543    3547    3551
    3555    3559    3563    3567    3571    3575    3579    3583    3587    3591
    3595    3599    3603    3607    3611    3615    3619    3623    3627    3631
    3635    3639    3643    3647    3651    3655    3659    3663    3667    3671
    3675    3679    3683    3687    3691    3695    3699    3703    3707    3711
    3715    3719    3723    3727    3731    3735    3739    3743    3747    3751
    3755    3759    3763    3767    3771    3775    3779    3783    3787    3791
    3795    3799    3803    3807    3811    3815    3819    3823    3827    3831
    3835    3839    3843    3847    3851    3855    3859    3863    3867    3871
    3875    3879    3883    3887    3891    3895    3899    3903    3907    3911
    3915    3919    3923    3927    3931    3935    3939    3943    3947    3951
    3955    3959    3963    3967    3971    3975    3979    3983    3987    3991
    3995    3999    4003    4007    4011    4015    4019    4023    4027    4031
    4035    4039    4043    4047    4051    4055    4059    4063    4067    4071
    4075    4079    4083    4087    4091    4095    4099    4103    4107    4111
    4115    4119    4123    4127    4131    4135    4139    4143    4147    4151
    4155    4159    4163    4167    4171    4175    4179    4183    4187    4191
    4195    4199    4203    4207    4211    4215    4219    4223    4227    4231
    4235    4239    4243    4247    4251    4255    4259    4263    4267    4271
    4275    4279    4283    4287    4291    4295    4299    4303    4307    4311
    4315    4319    4323    4327    4331    4335    4339    4343    4347    4351
    4355    4359    4363    4367    4371    4375    4379    4383    4387    4391
    4395    4399    4403    4407    4411    4415    4419    4423    4427    4431
    4435    4439    4443    4447    4451    4455    4459    4463    4467    4471
    4475    4479    4483    4487    4491    4495    4499    4503    4507    4511
    4515    4519    4523    4527    4531    4535    4539    4543    4547    4551
    4555    4559    4563    4567    4571    4575    4579    4583    4587    4591
    4595    4599    4603    4607    4611    4615    4619    4623    4627    4631
    4635    4639    4643    4647    4651    4655    4659    4663    4667    4671
    4675    4679    4683    4687    4691    4695    4699    4703    4707    4711
    4715    4719    4723    4727    4731    4735    4739    4743    4747    4751
    4755    4759    4763    4767    4771    4775    4779    4783    4787    4791
    4795    4799    4803    4807    4811    4815    4819    4823    4827    4831
    4835    4839    4843    4847    4851    4855    4859    4863    4867    4871
    4875    4879    4883    4887    4891    4895    4899    4903    4907    4911
    4915    4919    4923    4927    4931    4935    4939    4943    4947    4951
    4955    4959    4963    4967    4971    4975    4979    4983    4987    4991
    4995    4999    5003    5007    5011    5015    5019    5023    5027    5031
    5035    5039    5043    5047    5051    5055    5059    5063    5067    5071
    5075    5079    5083    5087    5091    5095    5099    5103    5107    5111
    5115    5119    5123    5127    5131    5135    5139    5143    5147    5151
    5155    5159    5163    5167    5171    5175    5179    5183    5187    5191
    5195    5199    5203    5207    5211    5215    5219    5223    5227    5231
    5235    5239    5243    5247    5251    5255    5259    5263    5267    5271
    5275    5279    5283    5287    5291    5295    5299    5303    5307    5311
    5315    5319    5323    5327    5331    5335    5339    5343    5347    5351
    5355    5359    5363    5367    5371    5375    5379    5383    5387    5391
    5395    5399    5403    5407    5411    5415    5419    5423    5427    5431
    5435    5439    5443    5447    5451    5455    5459    5463    5467    5471
    5475    5479    5483    5487    5491    5495    5499    5503    5507    5511
    5515    5519    5523    5527    5531    5535    5539    5543    5547    5551
    5555    5559    5563    5567    5571    5575    5579    5583    5587    5591
    5595    5599    5603    5607    5611    5615    5619    5623    5627    5631
    5635    5639    5643    5647    5651    5655    5659    5663    5667    5671
    5675    5679    5683    5687    5691    5695    5699    5703    5707    5711
    5715    5719    5723    5727    5731    5735    5739    5743    5747    5751
    5755    5759    5763    5767    5771    5775    5779    5783    5787    5791
    5795    5799    5803    5807    5811    5815    5819    5823    5827    5831
    5835    5839    5843    5847    5851    5855    5859    5863    5867    5871
    5875    5879    5883    5887    5891    5895    5899    5903    5907    5911
    5915    5919    5923    5927    5931    5935    5939    5943    5947    5951
    5955    5959    5963    5967    5971    5975    5979    5983    5987    5991
    5995    5999    6003    6007    6011    6015    6019    6023    6027    6031
    6035    6039    6043    6047    6051    6055    6059    6063    6067    6071
    6075    6079    6083    6087    6091    6095    6099    6103    6107    6111
    6115    6119    6123    6127    6131    6135    6139    6143    6147    6151
    6155    6159    6163    6167    6171    6175    6179    6183    6187    6191
    6195    6199    6203    6207    6211    6215    6219    6223    6227    6231
    6235    6239    6243    6247    6251    6255    6259    6263    6267    6271
    6275    6279    6283    6287    6291    6295    6299    6303    6307    6311
    6315    6319    6323    6327    6331    6335    6339    6343    6347    6351
    6355    6359    6363    6367    6371    6375    6379    6383    6387    6391
    6395    6399    6403    6407    6411    6415    6419    6423    6427    6431
    6435    6439    6443    6447    6451    6455    6459    6463    6467    6471
    6475    6479    6483    6487    6491    6495    6499    6503    6507    6511
    6515    6519    6523    6527    6531    6535    6539    6543    6547    6551
    6555    6559    6563    6567    6571    6575    6579    6583    6587    6591
    6595    6599    6603    6607    6611    6615    6619    6623    6627    6631
    6635    6639    6643    6647    6651    6655    6659    6663    6667    6671
    6675    6679    6683    6687    6691    6695    6699    6703    6707    6711
    6715    6719    6723    6727    6731    6735    6739    6743    6747    6751
    6755    6759    6763    6767    6771    6775    6779    6783    6787    6791
    6795    6799    6803    6807    6811    6815    6819    6823    6827    6831
    6835    6839    6843    6847    6851    6855    6859    6863    6867    6871
    6875    6879    6883    6887    6891    6895    6899    6903    6907    6911
    6915    6919    6923    6927    6931    6935    6939    6943    6947    6951
    6955    6959    6963    6967    6971    6975    6979    6983    6987    6991
    6995    6999    7003    7007    7011    7015    7019    7023    7027    7031
    7035    7039    7043    7047    7051    7055    7059    7063    7067    7071
    7075    7079    7083    7087    7091    7095    7099    7103    7107    7111
    7115    7119    7123    7127    7131    7135    7139    7143    7147    7151
    7155    7159    7163    7167    7171    7175    7179    7183    7187    7191
    7195    7199    7203    7207    7211    7215    7219    7223    7227    7231
    7235    7239    7243    7247    7251    7255    7259    7263    7267    7271
    7275    7279    7283    7287    7291    7295    7299    7303    7307    7311
    7315    7319    7323    7327    7331    7335    7339    7343    7347    7351
    7355    7359    7363    7367    7371    7375    7379    7383    7387    7391
    7395    7399    7403    7407    7411    7415    7419    7423    7427    7431
    7435    7439    7443    7447    7451    7455    7459    7463    7467    7471
    7475    7479    7483    7487    7491    7495    7499    7503    7507    7511
    7515    7519    7523    7527    7531    7535    7539    7543    7547    7551
    7555    7559    7563    7567    7571    7575    7579    7583    7587    7591
    7595    7599    7603    7607    7611    7615    7619    7623    7627    7631
    7635    7639    7643    7647    7651    7655    7659    7663    7667    7671
    7675    7679    7683
%FLAG BOND_FORCE_CONSTANT
%FORMAT(5E16.8)
  4.34000000E+02  3.37000000E+02  3.40000000E+02  3.10000000E+02  3.40000000E+02
  3.10000000E+02  3.40000000E+02  3.10000000E+02  3.40000000E+02  3.17000000E+02
  6.56000000E+02  3.37000000E+02  3.40000000E+02  3.10000000E+02  3.40000000E+02
  3.10000000E+02  3.40000000E+02  3.67000000E+02  4.34000000E+02  3.17000000E+02
  4.90000000E+02  5.70000000E+02  3.10000000E+02  3.40000000E+02  3.20000000E+02
  5.53000000E+02  3.67000000E+02  3.40000000E+02  3.40000000E+02  3.20000000E+02
  3.10000000E+02  3.17000000E+02  4.10000000E+02  4.88000000E+02  3.67000000E+02
  4.77000000E+02  4.34000000E+02  5.18000000E+02  4.27000000E+02  3.67000000E+02
  3.10000000E+02  3.60690000E+02  1.45490000E+02  3.54250000E+02  3.06730000E+02
  4.73590000E+02  5.90600000E+02  3.36070000E+02  3.44220000E+02  6.14680000E+02
  1.98120000E+02  3.42750000E+02  2.26810000E+02  2.44960000E+02  3.57290000E+02
  4.21360000E+02  3.56820000E+02  2.92520000E+02  3.86240000E+02  2.53390000E+02
  3.39860000E+02  2.26530000E+02  2.31660000E+02  2.11360000E+02  5.53000000E+02
  5.53000000E+02  5.53000000E+02
%FLAG BOND_EQUIL_VALUE
%FORMAT(5E16.8)
  1.01000000E+00  1.44900000E+00  1.09000000E+00  1.52600000E+00  1.09000000E+00
  1.52600000E+00  1.09000000E+00  1.52600000E+00  1.09000000E+00  1.52200000E+00
  1.25000000E+00  1.44900000E+00  1.09000000E+00  1.52600000E+00  1.09000000E+00
  1.52600000E+00  1.09000000E+00  1.47100000E+00  1.01000000E+00  1.52200000E+00
  1.33500000E+00  1.22900000E+00  1.52600000E+00  1.09000000E+00  1.41000000E+00
  9.60000000E-01  1.47100000E+00  1.09000000E+00  1.09000000E+00  1.41000000E+00
  1.52600000E+00  1.50400000E+00  1.39400000E+00  1.33500000E+00  1.08000000E+00
  1.34300000E+00  1.01000000E+00  1.37100000E+00  1.38100000E+00  1.08000000E+00
  1.52600000E+00  1.08600000E+00  1.91170000E+00  1.39860000E+00  1.40700000E+00
  1.01320000E+00  1.21900000E+00  1.37980000E+00  1.09690000E+00  1.46560000E+00
  1.81340000E+00  1.09790000E+00  1.53840000E+00  1.51330000E+00  1.08820000E+00
  1.34770000E+00  1.08850000E+00  1.45700000E+00  1.37300000E+00  1.50240000E+00
  1.37650000E+00  1.76220000E+00  1.75380000E+00  1.78850000E+00  8.72433130E-01
  1.37120510E+00  1.59398330E-01
%FLAG ANGLE_FORCE_CONSTANT
%FORMAT(5E16.8)
  5.00000000E+01  5.00000000E+01  8.00000000E+01  5.00000000E+01  5.00000000E+01
  3.50000000E+01  4.00000000E+01  5.00000000E+01  5.00000000E+01  4.00000000E+01
  5.00000000E+01  5.00000000E+01  3.50000000E+01  4.00000000E+01  6.30000000E+01
  5.00000000E+01  6.30000000E+01  7.00000000E+01  8.00000000E+01  5.00000000E+01
  7.00000000E+01  5.00000000E+01  8.00000000E+01  5.00000000E+01  5.00000000E+01
  3.50000000E+01  4.00000000E+01  5.00000000E+01  4.00000000E+01  5.00000000E+01
  3.50000000E+01  8.00000000E+01  5.00000000E+01  5.00000000E+01  3.50000000E+01
  6.30000000E+01  5.00000000E+01  6.30000000E+01  5.00000000E+01  5.00000000E+01
  8.00000000E+01  8.00000000E+01  8.00000000E+01  5.00000000E+01  5.00000000E+01
  4.00000000E+01  5.00000000E+01  5.00000000E+01  5.00000000E+01  5.00000000E+01
  5.50000000E+01  6.30000000E+01  5.00000000E+01  5.00000000E+01  5.00000000E+01
  7.00000000E+01  5.00000000E+01  8.00000000E+01  5.00000000E+01  8.00000000E+01
  5.00000000E+01  8.00000000E+01  5.00000000E+01  3.50000000E+01  5.00000000E+01
  5.00000000E+01  5.50000000E+01  8.00000000E+01  5.00000000E+01  5.00000000E+01
  6.30000000E+01  5.00000000E+01  7.00000000E+01  7.00000000E+01  5.00000000E+01
  7.00000000E+01  5.00000000E+01  7.00000000E+01  5.00000000E+01  7.00000000E+01
  7.00000000E+01  7.00000000E+01  5.00000000E+01  5.00000000E+01  5.00000000E+01
  6.30000000E+01  8.00000000E+01  5.00000000E+01  5.00000000E+01  4.00000000E+01
  6.30000000E+01  3.56400000E+01  3.59300000E+01  4.49000000E+01  6.13200000E+01
  6.36700000E+01  5.66800000E+01  6.73400000E+01  8.72100000E+01  5.73700000E+01
  7.66200000E+01  7.49900000E+01  1.19730000E+02  1.57750000E+02  4.29100000E+01
  4.32300000E+01  4.25500000E+01  4.64000000E+01  6.05700000E+01  4.39000000E+01
  6.12000000E+01  4.63200000E+01  6.20200000E+01  6.07200000E+01  6.28700000E+01
  4.41500000E+01  6.86400000E+01  6.13300000E+01  6.10900000E+01  4.39600000E+01
  5.68600000E+01  7.81300000E+01  6.42100000E+01  6.66200000E+01  6.73300000E+01
  6.76800000E+01  6.58400000E+01  1.01410000E+02  6.48900000E+01  1.20990000E+02
  9.33900000E+01
%FLAG ANGLE_EQUIL_VALUE
%FORMAT(5E16.8)
  2.06018753E+00  1.91113635E+00  1.91462701E+00  1.91113635E+00  1.91113635E+00
  1.91113635E+00  1.91113635E+00  1.91113635E+00  1.91113635E+00  1.91113635E+00
  1.91113635E+00  1.91113635E+00  1.91113635E+00  1.91113635E+00  1.92160833E+00
  1.91113635E+00  1.93906163E+00  2.04203610E+00  2.19911580E+00  2.06018753E+00
  2.03505478E+00  1.91113635E+00  1.91462701E+00  1.91113635E+00  1.91113635E+00
  1.91113635E+00  1.91113635E+00  1.91113635E+00  1.91113635E+00  1.91113635E+00
  1.91113635E+00  1.94080696E+00  1.91113635E+00  1.91113635E+00  1.91113635E+00
  1.92160833E+00  1.91113635E+00  1.93906163E+00  2.09439600E+00  2.12755727E+00
  2.10137732E+00  2.14501057E+00  1.91462701E+00  1.91113635E+00  1.91113635E+00
  1.91113635E+00  1.91113635E+00  1.91113635E+00  1.91113635E+00  1.91113635E+00
  1.89368305E+00  1.93906163E+00  2.12755727E+00  1.91113635E+00  1.91113635E+00
  2.03505478E+00  1.91113635E+00  1.94080696E+00  1.91113635E+00  1.94080696E+00
  1.91113635E+00  2.10137732E+00  1.91113635E+00  1.91113635E+00  1.91113635E+00
  1.91113635E+00  1.89368305E+00  1.91462701E+00  1.91113635E+00  1.91113635E+00
  1.97396823E+00  1.91113635E+00  2.09439600E+00  2.04203610E+00  2.09439600E+00
  2.09439600E+00  2.09439600E+00  2.09439600E+00  2.09439600E+00  2.09439600E+00
  2.09439600E+00  2.09439600E+00  2.09439600E+00  2.09439600E+00  2.09439600E+00
  1.93906163E+00  1.91462701E+00  1.91113635E+00  1.91113635E+00  1.91113635E+00
  1.93906163E+00  1.89455572E+00  1.86087085E+00  2.09230160E+00  2.08235322E+00
  2.09474507E+00  2.02528093E+00  2.09771213E+00  2.14762857E+00  2.04657396E+00
  2.22547028E+00  1.97030304E+00  1.87797508E+00  2.11848155E+00  1.88373467E+00
  1.91026369E+00  2.03453118E+00  2.07537190E+00  1.94447215E+00  1.90782022E+00
  2.13872738E+00  2.08287682E+00  2.17607744E+00  2.16211480E+00  2.12424114E+00
  2.02021948E+00  2.10242452E+00  2.19841767E+00  1.92440086E+00  1.92771699E+00
  2.09282520E+00  2.18829475E+00  2.13733112E+00  1.94691562E+00  2.12563741E+00
  2.10766051E+00  1.97833156E+00  1.59209003E+00  2.09299974E+00  1.87780055E+00
  1.78843965E+00
%FLAG DIHEDRAL_FORCE_CONSTANT
%FORMAT(5E16.8)
  0.00000000E+00  1.55555556E-01  9.80000000E-02  2.59000000E-01  1.44000000E-01
  7.30000000E-02  1.60000000E-01  1.50000000E-01  3.79000000E-01  2.70000000E-02
  1.42000000E-01  1.79000000E-01  7.06000000E-01  6.20000000E-01  1.90000000E-01
  0.00000000E+00  0.00000000E+00  0.00000000E+00  0.00000000E+00  2.50000000E+00
  0.00000000E+00  0.00000000E+00  2.00000000E-01  2.50000000E-01  1.80000000E-01
  2.00000000E+00  1.80000000E+00  8.00000000E-01  2.70000000E-01  4.20000000E-01
  3.37000000E-01  2.16000000E-01  1.48000000E-01  1.00000000E-03  6.74000000E-01
  6.00000000E-03  3.15000000E-01  9.50000000E-02  2.50000000E-01  6.00000000E-03
  2.51000000E-01  2.36000000E-01  1.30000000E-02  1.66666667E-01  6.43000000E-01
  7.90000000E-02  4.80000000E-02  4.06000000E-01  2.89000000E-01  1.12000000E-01
  6.97000000E-01  1.19000000E-01  1.56000000E-01  2.00000000E-01  2.00000000E-01
  4.00000000E-01  6.66000000E-01  2.46000000E-01  4.01000000E-01  1.60000000E-01
  2.11000000E-01  4.44000000E-01  2.67000000E-01  7.00000000E-03  6.61000000E-01
  2.18000000E-01  1.29000000E-01  3.06000000E-01  2.21000000E-01  2.19000000E-01
  8.90000000E-02  6.90000000E-01  2.04000000E-01  7.40000000E-01  4.70000000E-02
  2.40000000E+00  1.50000000E+00  5.00000000E+00  5.37500000E+00  2.32500000E+00
  1.43000000E-01  2.44000000E-01  2.50000000E-02  3.62500000E+00  1.20000000E-01
  6.65000000E+00  4.50000000E-01  1.41000000E+00  1.44444444E-01  4.00000000E+00
  1.26666667E+00  4.20000000E-01  1.54000000E+00  9.30000000E-01  1.57000000E-01
  1.65000000E+00  1.00000000E+00  2.43000000E+00  1.10000000E+00  8.72500000E-01
  1.26000000E+00  1.10000000E+00  1.05000000E+01  1.00000000E+00
%FLAG DIHEDRAL_PERIODICITY
%FORMAT(5E16.8)
  2.00000000E+00  3.00000000E+00  1.00000000E+00  2.00000000E+00  3.00000000E+00
  4.00000000E+00  3.00000000E+00  3.00000000E+00  1.00000000E+00  2.00000000E+00
  3.00000000E+00  4.00000000E+00  1.00000000E+00  2.00000000E+00  4.00000000E+00
  1.00000000E+00  2.00000000E+00  3.00000000E+00  4.00000000E+00  2.00000000E+00
  1.00000000E+00  3.00000000E+00  1.00000000E+00  2.00000000E+00  3.00000000E+00
  1.00000000E+00  2.00000000E+00  3.00000000E+00  2.00000000E+00  3.00000000E+00
  1.00000000E+00  2.00000000E+00  3.00000000E+00  4.00000000E+00  1.00000000E+00
  2.00000000E+00  3.00000000E+00  4.00000000E+00  1.00000000E+00  1.00000000E+00
  2.00000000E+00  3.00000000E+00  4.00000000E+00  3.00000000E+00  1.00000000E+00
  2.00000000E+00  4.00000000E+00  1.00000000E+00  2.00000000E+00  4.00000000E+00
  1.00000000E+00  2.00000000E+00  4.00000000E+00  1.00000000E+00  2.00000000E+00
  3.00000000E+00  1.00000000E+00  2.00000000E+00  3.00000000E+00  4.00000000E+00
  1.00000000E+00  2.00000000E+00  3.00000000E+00  4.00000000E+00  1.00000000E+00
  2.00000000E+00  4.00000000E+00  1.00000000E+00  2.00000000E+00  3.00000000E+00
  4.00000000E+00  1.00000000E+00  2.00000000E+00  3.00000000E+00  4.00000000E+00
  2.00000000E+00  2.00000000E+00  2.00000000E+00  2.00000000E+00  2.00000000E+00
  1.00000000E+00  2.00000000E+00  4.00000000E+00  2.00000000E+00  3.00000000E+00
  2.00000000E+00  2.00000000E+00  2.00000000E+00  3.00000000E+00  2.00000000E+00
  2.00000000E+00  1.00000000E+00  2.00000000E+00  3.00000000E+00  3.00000000E+00
  2.00000000E+00  2.00000000E+00  1.00000000E+00  2.00000000E+00  2.00000000E+00
  1.00000000E+00  2.00000000E+00  2.00000000E+00  2.00000000E+00
%FLAG DIHEDRAL_PHASE
%FORMAT(5E16.8)
  0.00000000E+00  0.00000000E+00  0.00000000E+00  3.14159400E+00  0.00000000E+00
  0.00000000E+00  0.00000000E+00  0.00000000E+00  0.00000000E+00  3.14159400E+00
  0.00000000E+00  0.00000000E+00  0.00000000E+00  3.14159400E+00  0.00000000E+00
  3.14159400E+00  3.14159400E+00  3.14159400E+00  0.00000000E+00  3.14159400E+00
  0.00000000E+00  0.00000000E+00  3.14159400E+00  3.14159400E+00  0.00000000E+00
  0.00000000E+00  0.00000000E+00  0.00000000E+00  0.00000000E+00  0.00000000E+00
  0.00000000E+00  3.14159400E+00  0.00000000E+00  3.14159400E+00  0.00000000E+00
  0.00000000E+00  0.00000000E+00  0.00000000E+00  0.00000000E+00  3.14159400E+00
  0.00000000E+00  0.00000000E+00  0.00000000E+00  0.00000000E+00  0.00000000E+00
  3.14159400E+00  0.00000000E+00  3.14159400E+00  3.14159400E+00  0.00000000E+00
  3.14159400E+00  3.14159400E+00  0.00000000E+00  0.00000000E+00  0.00000000E+00
  0.00000000E+00  0.00000000E+00  3.14159400E+00  0.00000000E+00  0.00000000E+00
  0.00000000E+00  0.00000000E+00  0.00000000E+00  0.00000000E+00  3.14159400E+00
  3.14159400E+00  0.00000000E+00  3.14159400E+00  3.14159400E+00  0.00000000E+00
  0.00000000E+00  0.00000000E+00  0.00000000E+00  0.00000000E+00  3.14159400E+00
  3.14159400E+00  3.14159400E+00  3.14159400E+00  3.14159400E+00  3.14159400E+00
  3.14159400E+00  3.14159400E+00  0.00000000E+00  3.14159400E+00  0.00000000E+00
  3.14159400E+00  3.14159400E+00  3.14159400E+00  0.00000000E+00  3.14159400E+00
  3.14159400E+00  0.00000000E+00  3.14159400E+00  3.14159400E+00  3.14159400E+00
  3.14159400E+00  3.14159400E+00  3.14159400E+00  3.14159400E+00  3.14159400E+00
  3.14159400E+00  3.14159400E+00  3.14159400E+00  3.14159400E+00
%FLAG SCEE_SCALE_FACTOR
%FORMAT(5E16.8)
  1.20000000E+00  1.20000000E+00  1.20000000E+00  1.20000000E+00  1.20000000E+00
  1.20000000E+00  1.20000000E+00  1.20000000E+00  1.20000000E+00  1.20000000E+00
  1.20000000E+00  1.20000000E+00  1.20000000E+00  1.20000000E+00  1.20000000E+00
  1.20000000E+00  1.20000000E+00  1.20000000E+00  1.20000000E+00  1.20000000E+00
  1.20000000E+00  1.20000000E+00  1.20000000E+00  1.20000000E+00  1.20000000E+00
  1.20000000E+00  1.20000000E+00  1.20000000E+00  1.20000000E+00  1.20000000E+00
  1.20000000E+00  1.20000000E+00  1.20000000E+00  1.20000000E+00  1.20000000E+00
  1.20000000E+00  1.20000000E+00  1.20000000E+00  1.20000000E+00  1.20000000E+00
  1.20000000E+00  1.20000000E+00  1.20000000E+00  1.20000000E+00  1.20000000E+00
  1.20000000E+00  1.20000000E+00  1.20000000E+00  1.20000000E+00  1.20000000E+00
  1.20000000E+00  1.20000000E+00  1.20000000E+00  1.20000000E+00  1.20000000E+00
  1.20000000E+00  1.20000000E+00  1.20000000E+00  1.20000000E+00  1.20000000E+00
  1.20000000E+00  1.20000000E+00  1.20000000E+00  1.20000000E+00  1.20000000E+00
  1.20000000E+00  1.20000000E+00  1.20000000E+00  1.20000000E+00  1.20000000E+00
  1.20000000E+00  1.20000000E+00  1.20000000E+00  1.20000000E+00  1.20000000E+00
  1.20000000E+00  1.20000000E+00  1.20000000E+00  1.20000000E+00  1.20000000E+00
  1.20000000E+00  1.20000000E+00  1.20000000E+00  1.20000000E+00  1.20000000E+00
  1.20000000E+00  1.20000000E+00  1.20000000E+00  1.20000000E+00  1.20000000E+00
  1.20000000E+00  1.20000000E+00  1.20000000E+00  1.20000000E+00  1.20000000E+00
  1.20000000E+00  1.20000000E+00  1.20000000E+00  1.20000000E+00  1.20000000E+00
  1.20000000E+00  0.00000000E+00  0.00000000E+00  0.00000000E+00
%FLAG SCNB_SCALE_FACTOR
%FORMAT(5E16.8)
  2.00000000E+00  2.00000000E+00  2.00000000E+00  2.00000000E+00  2.00000000E+00
  2.00000000E+00  2.00000000E+00  2.00000000E+00  2.00000000E+00  2.00000000E+00
  2.00000000E+00  2.00000000E+00  2.00000000E+00  2.00000000E+00  2.00000000E+00
  2.00000000E+00  2.00000000E+00  2.00000000E+00  2.00000000E+00  2.00000000E+00
  2.00000000E+00  2.00000000E+00  2.00000000E+00  2.00000000E+00  2.00000000E+00
  2.00000000E+00  2.00000000E+00  2.00000000E+00  2.00000000E+00  2.00000000E+00
  2.00000000E+00  2.00000000E+00  2.00000000E+00  2.00000000E+00  2.00000000E+00
  2.00000000E+00  2.00000000E+00  2.00000000E+00  2.00000000E+00  2.00000000E+00
  2.00000000E+00  2.00000000E+00  2.00000000E+00  2.00000000E+00  2.00000000E+00
  2.00000000E+00  2.00000000E+00  2.00000000E+00  2.00000000E+00  2.00000000E+00
  2.00000000E+00  2.00000000E+00  2.00000000E+00  2.00000000E+00  2.00000000E+00
  2.00000000E+00  2.00000000E+00  2.00000000E+00  2.00000000E+00  2.00000000E+00
  2.00000000E+00  2.00000000E+00  2.00000000E+00  2.00000000E+00  2.00000000E+00
  2.00000000E+00  2.00000000E+00  2.00000000E+00  2.00000000E+00  2.00000000E+00
  2.00000000E+00  2.00000000E+00  2.00000000E+00  2.00000000E+00  2.00000000E+00
  2.00000000E+00  2.00000000E+00  2.00000000E+00  2.00000000E+00  2.00000000E+00
  2.00000000E+00  2.00000000E+00  2.00000000E+00  2.00000000E+00  2.00000000E+00
  2.00000000E+00  2.00000000E+00  2.00000000E+00  2.00000000E+00  2.00000000E+00
  2.00000000E+00  2.00000000E+00  2.00000000E+00  2.00000000E+00  2.00000000E+00
  2.00000000E+00  2.00000000E+00  2.00000000E+00  2.00000000E+00  2.00000000E+00
  2.00000000E+00  0.00000000E+00  0.00000000E+00  0.00000000E+00
%FLAG SOLTY
%FORMAT(5E16.8)
  0.00000000E+00  0.00000000E+00  0.00000000E+00  0.00000000E+00  0.00000000E+00
  0.00000000E+00  0.00000000E+00  0.00000000E+00  0.00000000E+00  0.00000000E+00
  0.00000000E+00  0.00000000E+00  0.00000000E+00  0.00000000E+00  0.00000000E+00
  0.00000000E+00  0.00000000E+00  0.00000000E+00  0.00000000E+00  0.00000000E+00
  0.00000000E+00  0.00000000E+00  0.00000000E+00  0.00000000E+00  0.00000000E+00
  0.00000000E+00  0.00000000E+00  0.00000000E+00  0.00000000E+00  0.00000000E+00
  0.00000000E+00  0.00000000E+00  0.00000000E+00  0.00000000E+00  0.00000000E+00
  0.00000000E+00  0.00000000E+00  0.00000000E+00  0.00000000E+00  0.00000000E+00
  0.00000000E+00  0.00000000E+00  0.00000000E+00  0.00000000E+00  0.00000000E+00
  0.00000000E+00
%FLAG LENNARD_JONES_ACOEF
%FORMAT(5E16.8)
  9.44293233E+05  2.12601181E+03  1.39982777E-01  9.95480466E+05  2.56678134E+03
  1.04308023E+06  2.01791425E+04  9.14716912E+00  2.27401052E+04  2.01823541E+02
  6.20665997E+04  5.94667300E+01  6.78771368E+04  8.79040886E+02  3.25969625E+03
  7.44975864E+05  1.40467023E+03  7.91544157E+05  1.45985502E+04  4.66922514E+04
  5.81803229E+05  0.00000000E+00  0.00000000E+00  0.00000000E+00  0.00000000E+00
  0.00000000E+00  0.00000000E+00  0.00000000E+00  8.82619071E+05  2.27577561E+03
  9.24822270E+05  2.01619733E+04  6.01816484E+04  7.01803794E+05  0.00000000E+00
  8.19971662E+05  6.06829342E+05  1.02595236E+03  6.47841731E+05  1.12780457E+04
  3.69471530E+04  4.71003287E+05  0.00000000E+00  5.74393458E+05  3.79876399E+05
  8.96776989E+04  1.07193646E+02  9.71708117E+04  1.41077189E+03  4.98586848E+03
  6.82786631E+04  0.00000000E+00  8.61541883E+04  5.44261042E+04  7.51607703E+03
  5.46147253E+04  4.90239937E+01  5.98885646E+04  7.50063100E+02  2.82099197E+03
  4.09427581E+04  0.00000000E+00  5.30987710E+04  3.23283631E+04  4.33325458E+03
  2.43828624E+03  6.58473870E+04  6.63368273E+01  7.18621074E+04  9.55000044E+02
  3.50301067E+03  4.96707306E+04  0.00000000E+00  6.37148278E+04  3.93690817E+04
  5.34045360E+03  3.03448006E+03  3.76169105E+03  8.11497350E+05  1.94008400E+03
  8.53193737E+05  1.78601506E+04  5.42099106E+04  6.42430744E+05  0.00000000E+00
  7.56463928E+05  5.24402060E+05  7.80065389E+04  4.77581094E+04  5.74592031E+04
  6.96551276E+05  2.02752779E+06  5.85957523E+03  2.11351845E+06  4.90026081E+04
  1.42615819E+05  1.62294350E+06  0.00000000E+00  1.87390085E+06  1.33368524E+06
  2.02574546E+05  1.26117560E+05  1.50723105E+05  1.73376823E+06  4.26366419E+06
  9.84684600E+05  2.53456440E+03  1.03184851E+06  2.24743442E+04  6.71095195E+04
  7.82881336E+05  0.00000000E+00  9.14863930E+05  6.40712560E+05  9.60832554E+04
  5.92092559E+04  7.10513128E+04  8.43969952E+05  2.09089895E+06  1.02073671E+06
  2.31672966E+06  1.00133688E+04  2.37033661E+06  6.84678827E+04  1.82177673E+05
  1.89947213E+06  0.00000000E+00  2.10160256E+06  1.58377431E+06  2.51650907E+05
  1.62412531E+05  1.91330146E+05  1.96483601E+06  4.70626511E+06  2.34552991E+06
  4.90327872E+06  5.99897901E+05  1.11043914E+03  6.37913494E+05  1.16505362E+04
  3.74148715E+04  4.68011805E+05  0.00000000E+00  5.65590822E+05  3.78641356E+05
  5.47803235E+04  3.27958584E+04  3.98127143E+04  5.17507491E+05  1.30884564E+06
  6.30925504E+05  1.53564503E+06  3.76435470E+05  8.14127222E+05  1.86723722E+03
  8.57549298E+05  1.75564320E+04  5.37791327E+04  6.42970500E+05  0.00000000E+00
  7.60325682E+05  5.24079334E+05  7.76056179E+04  4.73396390E+04  5.70388968E+04
  6.99381362E+05  1.74537186E+06  8.48258258E+05  1.98928056E+06  5.17814271E+05
  7.01825028E+05  1.88178855E+03  1.37574453E-01  2.26409483E+03  8.45902425E+00
  5.38411501E+01  1.24900897E+03  0.00000000E+00  2.00740581E+03  9.14858779E+02
  9.64710720E+01  4.44659845E+01  5.99788431E+01  1.71458823E+03  5.15374979E+03
  2.23577481E+03  8.72013948E+03  9.87857350E+02  1.65195713E+03  1.34728399E-01
  2.75479979E+06  8.50685984E+03  2.86295430E+06  6.88056974E+04  1.97324943E+05
  2.21370530E+06  0.00000000E+00  2.53837032E+06  1.82346080E+06  2.79009604E+05
  1.74729142E+05  2.08328441E+05  2.35252551E+06  5.76065110E+06  2.83242404E+06
  6.29957019E+06  1.78599120E+06  2.37045960E+06  7.46975714E+03  7.77148140E+06
  8.64679274E+04  1.00417924E+02  9.38067954E+04  1.34169202E+03  4.77162373E+03
  6.57310418E+04  0.00000000E+00  8.31715633E+04  5.23449021E+04  7.20681791E+03
  4.14474284E+03  5.11317150E+03  7.52549148E+04  1.95762765E+05  9.27554496E+04
  2.44084252E+05  5.27277400E+04  7.48403283E+04  9.04434904E+01  2.69789487E+05
  6.90855956E+03  9.33217616E+04  1.05103439E+02  1.01372942E+05  1.42703904E+03
  5.10916075E+03  7.08225575E+04  0.00000000E+00  8.98799076E+04  5.63419090E+04
  7.73223568E+03  4.43530964E+03  5.47737117E+03  8.12662403E+04  2.11783234E+05
  1.00235148E+05  2.65089806E+05  5.68021765E+04  8.07866982E+04  9.47421632E+01
  2.92053806E+05  7.41026906E+03  7.94617769E+03  6.43853349E+04  5.78352684E+01
  7.06006146E+04  8.84544347E+02  3.32626784E+03  4.82692694E+04  0.00000000E+00
  6.25963552E+04  3.81142515E+04  5.10916075E+03  2.87505342E+03  3.57795711E+03
  5.63013422E+04  1.48672098E+05  6.97998263E+04  1.91441225E+05  3.86646725E+04
  5.58085097E+04  5.24570081E+01  2.05974300E+05  4.88692384E+03  5.22955465E+03
  3.39005767E+03  9.77669063E+06  4.67000839E+04  9.95563331E+06  3.03899730E+05
  7.90717672E+05  8.06472025E+06  0.00000000E+00  8.82692541E+06  6.74908715E+06
  1.08463437E+06  7.06361584E+05  8.29137544E+05  8.27439234E+06  1.96869108E+07
  9.85204211E+06  2.02107910E+07  6.52407029E+06  8.38944808E+06  4.05705611E+04
  2.62893356E+07  1.05299389E+06  1.14473311E+06  8.32594410E+05  8.29924504E+07
  1.14506480E+05  1.31131359E+02  1.24298247E+05  1.76494537E+03  6.29605435E+03
  8.69788452E+04  0.00000000E+00  1.10206083E+05  6.92332636E+04  9.51802267E+03
  5.46742125E+03  6.74812668E+03  9.96834078E+04  2.59523778E+05  1.22904242E+05
  3.24160110E+05  6.97666560E+04  9.91164051E+04  1.18150877E+02  3.57765377E+05
  9.12301018E+03  9.78427953E+03  6.44646734E+03  1.39907136E+06  1.20465683E+04
  9.04754248E+05  1.88214625E+03  9.57153878E+05  1.86002079E+04  5.82169798E+04
  7.10552826E+05  0.00000000E+00  8.48637713E+05  5.77196189E+05  8.45678586E+04
  5.11473202E+04  6.18379568E+04  7.78724870E+05  1.95529336E+06  9.46731090E+05
  2.25834630E+06  5.71910667E+05  7.80411160E+05  1.66932268E+03  2.66129845E+06
  8.14835231E+04  8.78765379E+04  6.02986271E+04  9.55632483E+06  1.07868966E+05
  8.65113123E+05  0.00000000E+00  0.00000000E+00  0.00000000E+00  0.00000000E+00
  0.00000000E+00  0.00000000E+00  0.00000000E+00  0.00000000E+00  0.00000000E+00
  0.00000000E+00  0.00000000E+00  0.00000000E+00  0.00000000E+00  0.00000000E+00
  0.00000000E+00  0.00000000E+00  0.00000000E+00  0.00000000E+00  0.00000000E+00
  0.00000000E+00  0.00000000E+00  0.00000000E+00  0.00000000E+00  0.00000000E+00
  0.00000000E+00  0.00000000E+00  0.00000000E+00
%FLAG LENNARD_JONES_BCOEF
%FORMAT(5E16.8)
  8.01323529E+02  2.09604198E+01  9.37598976E-02  7.36907417E+02  2.06278363E+01
  6.75612247E+02  6.45756063E+01  7.57919667E-01  6.13981767E+01  3.56012899E+00
  1.13252061E+02  1.93248820E+00  1.06076943E+02  7.42992380E+00  1.43076527E+01
  7.50714425E+02  1.79702257E+01  6.93079947E+02  5.79323581E+01  1.03606917E+02
  6.99746810E+02  0.00000000E+00  0.00000000E+00  0.00000000E+00  0.00000000E+00
  0.00000000E+00  0.00000000E+00  0.00000000E+00  6.53361429E+02  1.82891803E+01
  5.99015525E+02  5.44372326E+01  9.40505980E+01  6.14502845E+02  0.00000000E+00
  5.31102864E+02  6.77220874E+02  1.53505284E+01  6.26720080E+02  5.08951803E+01
  9.21192136E+01  6.29300710E+02  0.00000000E+00  5.55666448E+02  5.64885984E+02
  1.36131731E+02  2.59456373E+00  1.26919150E+02  9.41257003E+00  1.76949863E+01
  1.25287818E+02  0.00000000E+00  1.12529845E+02  1.11805549E+02  2.17257828E+01
  1.05031585E+02  1.73473071E+00  9.85097219E+01  6.78541827E+00  1.31591746E+01
  9.59185913E+01  0.00000000E+00  8.73413012E+01  8.51921330E+01  1.63092814E+01
  1.20953369E+01  1.15327881E+02  2.01792524E+00  1.07908863E+02  7.65648470E+00
  1.46638650E+01  1.05648788E+02  0.00000000E+00  9.56748258E+01  9.40124296E+01
  1.81057616E+01  1.34932874E+01  1.50233639E+01  6.48597119E+02  1.74825352E+01
  5.95658566E+02  5.30440533E+01  9.24130897E+01  6.08686716E+02  0.00000000E+00
  5.28126496E+02  5.49675335E+02  1.10856114E+02  8.57562161E+01  9.40636541E+01
  5.24668528E+02  1.33303578E+03  3.95051895E+01  1.21899948E+03  1.14243284E+02
  1.94896900E+02  1.25793819E+03  0.00000000E+00  1.08079689E+03  1.13979741E+03
  2.32280910E+02  1.81199404E+02  1.98088334E+02  1.07629402E+03  2.19459223E+03
  7.30206155E+02  2.04226110E+01  6.69494459E+02  6.08139360E+01  1.05087646E+02
  6.86742760E+02  0.00000000E+00  5.93591333E+02  6.20970728E+02  1.25742895E+02
  9.75893223E+01  1.06903901E+02  5.90251928E+02  1.20800124E+03  6.63431737E+02
  9.73020518E+02  3.52644495E+01  8.81518500E+02  9.22126389E+01  1.50416187E+02
  9.29287264E+02  0.00000000E+00  7.81577405E+02  8.48151744E+02  1.76785341E+02
  1.40412144E+02  1.52400575E+02  7.82392141E+02  1.57444124E+03  8.73669684E+02
  1.09738109E+03  6.15165511E+02  1.45902714E+01  5.68167388E+02  4.72594809E+01
  8.46911674E+01  5.73100668E+02  0.00000000E+00  5.03752097E+02  5.15240418E+02
  1.02477444E+02  7.83922976E+01  8.63723599E+01  4.98871431E+02  1.03157656E+03
  5.62969425E+02  7.63007119E+02  4.69350655E+02  6.78274341E+02  1.79069525E+01
  6.23492018E+02  5.49085611E+01  9.61012043E+01  6.35775777E+02  0.00000000E+00
  5.52804364E+02  5.73720490E+02  1.15443242E+02  8.91419860E+01  9.78487751E+01
  5.48900066E+02  1.12747567E+03  6.17825399E+02  8.21934352E+02  5.21008860E+02
  5.74088001E+02  1.76168249E+01  8.30374121E-02  1.73073921E+01  6.51126010E-01
  1.64271443E+00  1.51381989E+01  0.00000000E+00  1.53451874E+01  1.29497639E+01
  2.19888978E+00  1.47593342E+00  1.71416196E+00  1.46824710E+01  3.30984635E+01
  1.71355763E+01  2.93990844E+01  1.22938581E+01  1.50468782E+01  7.34107347E-02
  1.68787633E+03  5.17062361E+01  1.54115000E+03  1.47051848E+02  2.49028630E+02
  1.59589645E+03  0.00000000E+00  1.36642398E+03  1.44772613E+03  2.96120083E+02
  2.31680168E+02  2.52976669E+02  1.36188294E+03  2.77099238E+03  1.52727485E+03
  1.97870443E+03  1.30898332E+03  1.42730464E+03  4.32849195E+01  3.49613872E+03
  1.34516705E+02  2.52706841E+00  1.25489661E+02  9.23714573E+00  1.74198525E+01
  1.23703833E+02  0.00000000E+00  1.11262422E+02  1.10338858E+02  2.14083478E+01
  1.60512210E+01  1.78280753E+01  1.09570372E+02  2.29782888E+02  1.24325688E+02
  1.75205783E+02  1.01173582E+02  1.14083104E+02  2.14252117E+00  2.93023433E+02
  2.10929191E+01  1.48987394E+02  2.75631727E+00  1.39078880E+02  1.01563736E+01
  1.92174397E+01  1.36896727E+02  0.00000000E+00  1.23310980E+02  1.22044000E+02
  2.36414051E+01  1.77023375E+01  1.96722815E+01  1.21392023E+02  2.54804909E+02
  1.37787728E+02  1.94663459E+02  1.11953944E+02  1.26366740E+02  2.33785449E+00
  3.25035384E+02  2.32899892E+01  2.57122925E+01  1.23751804E+02  2.04464126E+00
  1.16065835E+02  7.99614292E+00  1.55059847E+01  1.13016701E+02  0.00000000E+00
  1.02907011E+02  1.00379343E+02  1.92174397E+01  1.42525182E+01  1.58996004E+01
  1.01040256E+02  2.13489607E+02  1.14981426E+02  1.65426719E+02  9.23664132E+01
  1.05029928E+02  1.73959275E+00  2.72964220E+02  1.89134207E+01  2.08590256E+01
  1.67944276E+01  3.64478415E+03  1.38866468E+02  3.29421866E+03  3.54244990E+02
  5.71411902E+02  3.49156180E+03  0.00000000E+00  2.92074060E+03  3.19257412E+03
  6.69237459E+02  5.33949270E+02  5.78495189E+02  2.92766201E+03  5.87176420E+03
  3.26498708E+03  4.06253761E+03  2.86770216E+03  3.07784940E+03  1.15629635E+02
  7.37066765E+03  6.63564343E+02  7.37618163E+02  6.29066019E+02  1.50112408E+04
  1.80257261E+02  3.36274316E+00  1.68210204E+02  1.23369002E+01  2.33010049E+01
  1.65704292E+02  0.00000000E+00  1.49139575E+02  1.47767093E+02  2.86492848E+01
  2.14674068E+01  2.38495359E+01  1.46847372E+02  3.08084787E+02  1.66649352E+02
  2.35118814E+02  1.35519110E+02  1.52881628E+02  2.85156961E+00  3.92932576E+02
  2.82254616E+01  3.11634667E+01  2.52954396E+01  8.90674642E+02  3.77687565E+01
  8.29661356E+02  2.08605096E+01  7.64308217E+02  6.55778432E+01  1.16017383E+02
  7.75502024E+02  0.00000000E+00  6.77655696E+02  6.98618155E+02  1.39830173E+02
  1.07512157E+02  1.18215302E+02  6.72054626E+02  1.38466735E+03  7.57340751E+02
  1.01615668E+03  6.35328732E+02  7.02428422E+02  1.75506604E+01  1.75478327E+03
  1.38122581E+02  1.52923989E+02  1.26675569E+02  3.81155700E+03  1.85057667E+02
  8.58130004E+02  0.00000000E+00  0.00000000E+00  0.00000000E+00  0.00000000E+00
  0.00000000E+00  0.00000000E+00  0.00000000E+00  0.00000000E+00  0.00000000E+00
  0.00000000E+00  0.00000000E+00  0.00000000E+00  0.00000000E+00  0.00000000E+00
  0.00000000E+00  0.00000000E+00  0.00000000E+00  0.00000000E+00  0.00000000E+00
  0.00000000E+00  0.00000000E+00  0.00000000E+00  0.00000000E+00  0.00000000E+00
  0.00000000E+00  0.00000000E+00  0.00000000E+00
%FLAG BONDS_INC_HYDROGEN
%FORMAT(10I8)
     435     432       1     441     438       3     447     444       5     450
     444       5     456     453       7     462     459       9     465     459
       9     468     459       9     474     471       9     477     471       9
     480     471       9     369     366       1     375     372      13     381
     378      15     384     378      15     390     387      15     393     387
      15     399     396      15     402     396      15     408     405      17
     411     405      17     417     414      19     420     414      19     423
     414      19     327     324       1     333     330      13     339     336
      24     345     342       9     348     342       9     351     342       9
     357     354      26     279     276       1     285     282      13     291
     288       7     297     294       9     300     294       9     303     294
       9     309     306       9     312     306       9     315     306       9
     216     213      19     219     213      19     222     213      19     228
     225      28     234     231       5     237     231       5     243     240
       7     249     246       9     252     246       9     255     246       9
     261     258       9     264     258       9     267     258       9     180
     177       1     186     183       3     192     189      29     195     189
      29     201     198      26     129     126       1     135     132      13
     141     138       9     144     138       9     156     153      35     162
     159      37     168     165      40      99      96       1     105     102
      13     111     108       9     114     108       9     117     108       9
      42      39       1      48      45      13      54      51       5      57
      51       5      63      60       7      69      66       9      72      66
       9      75      66       9      81      78       9      84      78       9
      87      78       9       3       0      19       6       0      19       9
       0      19      15      12      28      21      18      29      24      18
      29      30      27      26     564     606      42     558     603      42
     555     600      42     552     597      42     540     546      46     531
     543      46     528     588      49     528     591      49     528     594
      49     516     582      52     516     585      52     513     576      52
     513     579      52     510     573      55     507     570      57     657
     654      65     660     654      65     660     657      66     669     666
      65     672     666      65     672     669      66     681     678      65
     684     678      65     684     681      66     693     690      65     696
     690      65     696     693      66     705     702      65     708     702
      65     708     705      66     717     714      65     720     714      65
     720     717      66     729     726      65     732     726      65     732
     729      66     741     738      65     744     738      65     744     741
      66     753     750      65     756     750      65     756     753      66
     765     762      65     768     762      65     768     765      66     777
     774      65     780     774      65     780     777      66     789     786
      65     792     786      65     792     789      66     801     798      65
     804     798      65     804     801      66     813     810      65     816
     810      65     816     813      66     825     822      65     828     822
      65     828     825      66     837     834      65     840     834      65
     840     837      66     849     846      65     852     846      65     852
     849      66     861     858      65     864     858      65     864     861
      66     873     870      65     876     870      65     876     873      66
     885     882      65     888     882      65     888     885      66     897
     894      65     900     894      65     900     897      66     909     906
      65     912     906      65     912     909      66     921     918      65
     924     918      65     924     921      66     933     930      65     936
     930      65     936     933      66     945     942      65     948     942
      65     948     945      66     957     954      65     960     954      65
     960     957      66     969     966      65     972     966      65     972
     969      66     981     978      65     984     978      65     984     981
      66     993     990      65     996     990      65     996     993      66
    1005    1002      65    1008    1002      65    1008    1005      66    1017
    1014      65    1020    1014      65    1020    1017      66    1029    1026
      65    1032    1026      65    1032    1029      66    1041    1038      65
    1044    1038      65    1044    1041      66    1053    1050      65    1056
    1050      65    1056    1053      66    1065    1062      65    1068    1062
      65    1068    1065      66    1077    1074      65    1080    1074      65
    1080    1077      66    1089    1086      65    1092    1086      65    1092
    1089      66    1101    1098      65    1104    1098      65    1104    1101
      66    1113    1110      65    1116    1110      65    1116    1113      66
    1125    1122      65    1128    1122      65    1128    1125      66    1137
    1134      65    1140    1134      65    1140    1137      66    1149    1146
      65    1152    1146      65    1152    1149      66    1161    1158      65
    1164    1158      65    1164    1161      66    1173    1170      65    1176
    1170      65    1176    1173      66    1185    1182      65    1188    1182
      65    1188    1185      66    1197    1194      65    1200    1194      65
    1200    1197      66    1209    1206      65    1212    1206      65    1212
    1209      66    1221    1218      65    1224    1218      65    1224    1221
      66    1233    1230      65    1236    1230      65    1236    1233      66
    1245    1242      65    1248    1242      65    1248    1245      66    1257
    1254      65    1260    1254      65    1260    1257      66    1269    1266
      65    1272    1266      65    1272    1269      66    1281    1278      65
    1284    1278      65    1284    1281      66    1293    1290      65    1296
    1290      65    1296    1293      66    1305    1302      65    1308    1302
      65    1308    1305      66    1317    1314      65    1320    1314      65
    1320    1317      66    1329    1326      65    1332    1326      65    1332
    1329      66    1341    1338      65    1344    1338      65    1344    1341
      66    1353    1350      65    1356    1350      65    1356    1353      66
    1365    1362      65    1368    1362      65    1368    1365      66    1377
    1374      65    1380    1374      65    1380    1377      66    1389    1386
      65    1392    1386      65    1392    1389      66    1401    1398      65
    1404    1398      65    1404    1401      66    1413    1410      65    1416
    1410      65    1416    1413      66    1425    1422      65    1428    1422
      65    1428    1425      66    1437    1434      65    1440    1434      65
    1440    1437      66    1449    1446      65    1452    1446      65    1452
    1449      66    1461    1458      65    1464    1458      65    1464    1461
      66    1473    1470      65    1476    1470      65    1476    1473      66
    1485    1482      65    1488    1482      65    1488    1485      66    1497
    1494      65    1500    1494      65    1500    1497      66    1509    1506
      65    1512    1506      65    1512    1509      66    1521    1518      65
    1524    1518      65    1524    1521      66    1533    1530      65    1536
    1530      65    1536    1533      66    1545    1542      65    1548    1542
      65    1548    1545      66    1557    1554      65    1560    1554      65
    1560    1557      66    1569    1566      65    1572    1566      65    1572
    1569      66    1581    1578      65    1584    1578      65    1584    1581
      66    1593    1590      65    1596    1590      65    1596    1593      66
    1605    1602      65    1608    1602      65    1608    1605      66    1617
    1614      65    1620    1614      65    1620    1617      66    1629    1626
      65    1632    1626      65    1632    1629      66    1641    1638      65
    1644    1638      65    1644    1641      66    1653    1650      65    1656
    1650      65    1656    1653      66    1665    1662      65    1668    1662
      65    1668    1665      66    1677    1674      65    1680    1674      65
    1680    1677      66    1689    1686      65    1692    1686      65    1692
    1689      66    1701    1698      65    1704    1698      65    1704    1701
      66    1713    1710      65    1716    1710      65    1716    1713      66
    1725    1722      65    1728    1722      65    1728    1725      66    1737
    1734      65    1740    1734      65    1740    1737      66    1749    1746
      65    1752    1746      65    1752    1749      66    1761    1758      65
    1764    1758      65    1764    1761      66    1773    1770      65    1776
    1770      65    1776    1773      66    1785    1782      65    1788    1782
      65    1788    1785      66    1797    1794      65    1800    1794      65
    1800    1797      66    1809    1806      65    1812    1806      65    1812
    1809      66    1821    1818      65    1824    1818      65    1824    1821
      66    1833    1830      65    1836    1830      65    1836    1833      66
    1845    1842      65    1848    1842      65    1848    1845      66    1857
    1854      65    1860    1854      65    1860    1857      66    1869    1866
      65    1872    1866      65    1872    1869      66    1881    1878      65
    1884    1878      65    1884    1881      66    1893    1890      65    1896
    1890      65    1896    1893      66    1905    1902      65    1908    1902
      65    1908    1905      66    1917    1914      65    1920    1914      65
    1920    1917      66    1929    1926      65    1932    1926      65    1932
    1929      66    1941    1938      65    1944    1938      65    1944    1941
      66    1953    1950      65    1956    1950      65    1956    1953      66
    1965    1962      65    1968    1962      65    1968    1965      66    1977
    1974      65    1980    1974      65    1980    1977      66    1989    1986
      65    1992    1986      65    1992    1989      66    2001    1998      65
    2004    1998      65    2004    2001      66    2013    2010      65    2016
    2010      65    2016    2013      66    2025    2022      65    2028    2022
      65    2028    2025      66    2037    2034      65    2040    2034      65
    2040    2037      66    2049    2046      65    2052    2046      65    2052
    2049      66    2061    2058      65    2064    2058      65    2064    2061
      66    2073    2070      65    2076    2070      65    2076    2073      66
    2085    2082      65    2088    2082      65    2088    2085      66    2097
    2094      65    2100    2094      65    2100    2097      66    2109    2106
      65    2112    2106      65    2112    2109      66    2121    2118      65
    2124    2118      65    2124    2121      66    2133    2130      65    2136
    2130      65    2136    2133      66    2145    2142      65    2148    2142
      65    2148    2145      66    2157    2154      65    2160    2154      65
    2160    2157      66    2169    2166      65    2172    2166      65    2172
    2169      66    2181    2178      65    2184    2178      65    2184    2181
      66    2193    2190      65    2196    2190      65    2196    2193      66
    2205    2202      65    2208    2202      65    2208    2205      66    2217
    2214      65    2220    2214      65    2220    2217      66    2229    2226
      65    2232    2226      65    2232    2229      66    2241    2238      65
    2244    2238      65    2244    2241      66    2253    2250      65    2256
    2250      65    2256    2253      66    2265    2262      65    2268    2262
      65    2268    2265      66    2277    2274      65    2280    2274      65
    2280    2277      66    2289    2286      65    2292    2286      65    2292
    2289      66    2301    2298      65    2304    2298      65    2304    2301
      66    2313    2310      65    2316    2310      65    2316    2313      66
    2325    2322      65    2328    2322      65    2328    2325      66    2337
    2334      65    2340    2334      65    2340    2337      66    2349    2346
      65    2352    2346      65    2352    2349      66    2361    2358      65
    2364    2358      65    2364    2361      66    2373    2370      65    2376
    2370      65    2376    2373      66    2385    2382      65    2388    2382
      65    2388    2385      66    2397    2394      65    2400    2394      65
    2400    2397      66    2409    2406      65    2412    2406      65    2412
    2409      66    2421    2418      65    2424    2418      65    2424    2421
      66    2433    2430      65    2436    2430      65    2436    2433      66
    2445    2442      65    2448    2442      65    2448    2445      66    2457
    2454      65    2460    2454      65    2460    2457      66    2469    2466
      65    2472    2466      65    2472    2469      66    2481    2478      65
    2484    2478      65    2484    2481      66    2493    2490      65    2496
    2490      65    2496    2493      66    2505    2502      65    2508    2502
      65    2508    2505      66    2517    2514      65    2520    2514      65
    2520    2517      66    2529    2526      65    2532    2526      65    2532
    2529      66    2541    2538      65    2544    2538      65    2544    2541
      66    2553    2550      65    2556    2550      65    2556    2553      66
    2565    2562      65    2568    2562      65    2568    2565      66    2577
    2574      65    2580    2574      65    2580    2577      66    2589    2586
      65    2592    2586      65    2592    2589      66    2601    2598      65
    2604    2598      65    2604    2601      66    2613    2610      65    2616
    2610      65    2616    2613      66    2625    2622      65    2628    2622
      65    2628    2625      66    2637    2634      65    2640    2634      65
    2640    2637      66    2649    2646      65    2652    2646      65    2652
    2649      66    2661    2658      65    2664    2658      65    2664    2661
      66    2673    2670      65    2676    2670      65    2676    2673      66
    2685    2682      65    2688    2682      65    2688    2685      66    2697
    2694      65    2700    2694      65    2700    2697      66    2709    2706
      65    2712    2706      65    2712    2709      66    2721    2718      65
    2724    2718      65    2724    2721      66    2733    2730      65    2736
    2730      65    2736    2733      66    2745    2742      65    2748    2742
      65    2748    2745      66    2757    2754      65    2760    2754      65
    2760    2757      66    2769    2766      65    2772    2766      65    2772
    2769      66    2781    2778      65    2784    2778      65    2784    2781
      66    2793    2790      65    2796    2790      65    2796    2793      66
    2805    2802      65    2808    2802      65    2808    2805      66    2817
    2814      65    2820    2814      65    2820    2817      66    2829    2826
      65    2832    2826      65    2832    2829      66    2841    2838      65
    2844    2838      65    2844    2841      66    2853    2850      65    2856
    2850      65    2856    2853      66    2865    2862      65    2868    2862
      65    2868    2865      66    2877    2874      65    2880    2874      65
    2880    2877      66    2889    2886      65    2892    2886      65    2892
    2889      66    2901    2898      65    2904    2898      65    2904    2901
      66    2913    2910      65    2916    2910      65    2916    2913      66
    2925    2922      65    2928    2922      65    2928    2925      66    2937
    2934      65    2940    2934      65    2940    2937      66    2949    2946
      65    2952    2946      65    2952    2949      66    2961    2958      65
    2964    2958      65    2964    2961      66    2973    2970      65    2976
    2970      65    2976    2973      66    2985    2982      65    2988    2982
      65    2988    2985      66    2997    2994      65    3000    2994      65
    3000    2997      66    3009    3006      65    3012    3006      65    3012
    3009      66    3021    3018      65    3024    3018      65    3024    3021
      66    3033    3030      65    3036    3030      65    3036    3033      66
    3045    3042      65    3048    3042      65    3048    3045      66    3057
    3054      65    3060    3054      65    3060    3057      66    3069    3066
      65    3072    3066      65    3072    3069      66    3081    3078      65
    3084    3078      65    3084    3081      66    3093    3090      65    3096
    3090      65    3096    3093      66    3105    3102      65    3108    3102
      65    3108    3105      66    3117    3114      65    3120    3114      65
    3120    3117      66    3129    3126      65    3132    3126      65    3132
    3129      66    3141    3138      65    3144    3138      65    3144    3141
      66    3153    3150      65    3156    3150      65    3156    3153      66
    3165    3162      65    3168    3162      65    3168    3165      66    3177
    3174      65    3180    3174      65    3180    3177      66    3189    3186
      65    3192    3186      65    3192    3189      66    3201    3198      65
    3204    3198      65    3204    3201      66    3213    3210      65    3216
    3210      65    3216    3213      66    3225    3222      65    3228    3222
      65    3228    3225      66    3237    3234      65    3240    3234      65
    3240    3237      66    3249    3246      65    3252    3246      65    3252
    3249      66    3261    3258      65    3264    3258      65    3264    3261
      66    3273    3270      65    3276    3270      65    3276    3273      66
    3285    3282      65    3288    3282      65    3288    3285      66    3297
    3294      65    3300    3294      65    3300    3297      66    3309    3306
      65    3312    3306      65    3312    3309      66    3321    3318      65
    3324    3318      65    3324    3321      66    3333    3330      65    3336
    3330      65    3336    3333      66    3345    3342      65    3348    3342
      65    3348    3345      66    3357    3354      65    3360    3354      65
    3360    3357      66    3369    3366      65    3372    3366      65    3372
    3369      66    3381    3378      65    3384    3378      65    3384    3381
      66    3393    3390      65    3396    3390      65    3396    3393      66
    3405    3402      65    3408    3402      65    3408    3405      66    3417
    3414      65    3420    3414      65    3420    3417      66    3429    3426
      65    3432    3426      65    3432    3429      66    3441    3438      65
    3444    3438      65    3444    3441      66    3453    3450      65    3456
    3450      65    3456    3453      66    3465    3462      65    3468    3462
      65    3468    3465      66    3477    3474      65    3480    3474      65
    3480    3477      66    3489    3486      65    3492    3486      65    3492
    3489      66    3501    3498      65    3504    3498      65    3504    3501
      66    3513    3510      65    3516    3510      65    3516    3513      66
    3525    3522      65    3528    3522      65    3528    3525      66    3537
    3534      65    3540    3534      65    3540    3537      66    3549    3546
      65    3552    3546      65    3552    3549      66    3561    3558      65
    3564    3558      65    3564    3561      66    3573    3570      65    3576
    3570      65    3576    3573      66    3585    3582      65    3588    3582
      65    3588    3585      66    3597    3594      65    3600    3594      65
    3600    3597      66    3609    3606      65    3612    3606      65    3612
    3609      66    3621    3618      65    3624    3618      65    3624    3621
      66    3633    3630      65    3636    3630      65    3636    3633      66
    3645    3642      65    3648    3642      65    3648    3645      66    3657
    3654      65    3660    3654      65    3660    3657      66    3669    3666
      65    3672    3666      65    3672    3669      66    3681    3678      65
    3684    3678      65    3684    3681      66    3693    3690      65    3696
    3690      65    3696    3693      66    3705    3702      65    3708    3702
      65    3708    3705      66    3717    3714      65    3720    3714      65
    3720    3717      66    3729    3726      65    3732    3726      65    3732
    3729      66    3741    3738      65    3744    3738      65    3744    3741
      66    3753    3750      65    3756    3750      65    3756    3753      66
    3765    3762      65    3768    3762      65    3768    3765      66    3777
    3774      65    3780    3774      65    3780    3777      66    3789    3786
      65    3792    3786      65    3792    3789      66    3801    3798      65
    3804    3798      65    3804    3801      66    3813    3810      65    3816
    3810      65    3816    3813      66    3825    3822      65    3828    3822
      65    3828    3825      66    3837    3834      65    3840    3834      65
    3840    3837      66    3849    3846      65    3852    3846      65    3852
    3849      66    3861    3858      65    3864    3858      65    3864    3861
      66    3873    3870      65    3876    3870      65    3876    3873      66
    3885    3882      65    3888    3882      65    3888    3885      66    3897
    3894      65    3900    3894      65    3900    3897      66    3909    3906
      65    3912    3906      65    3912    3909      66    3921    3918      65
    3924    3918      65    3924    3921      66    3933    3930      65    3936
    3930      65    3936    3933      66    3945    3942      65    3948    3942
      65    3948    3945      66    3957    3954      65    3960    3954      65
    3960    3957      66    3969    3966      65    3972    3966      65    3972
    3969      66    3981    3978      65    3984    3978      65    3984    3981
      66    3993    3990      65    3996    3990      65    3996    3993      66
    4005    4002      65    4008    4002      65    4008    4005      66    4017
    4014      65    4020    4014      65    4020    4017      66    4029    4026
      65    4032    4026      65    4032    4029      66    4041    4038      65
    4044    4038      65    4044    4041      66    4053    4050      65    4056
    4050      65    4056    4053      66    4065    4062      65    4068    4062
      65    4068    4065      66    4077    4074      65    4080    4074      65
    4080    4077      66    4089    4086      65    4092    4086      65    4092
    4089      66    4101    4098      65    4104    4098      65    4104    4101
      66    4113    4110      65    4116    4110      65    4116    4113      66
    4125    4122      65    4128    4122      65    4128    4125      66    4137
    4134      65    4140    4134      65    4140    4137      66    4149    4146
      65    4152    4146      65    4152    4149      66    4161    4158      65
    4164    4158      65    4164    4161      66    4173    4170      65    4176
    4170      65    4176    4173      66    4185    4182      65    4188    4182
      65    4188    4185      66    4197    4194      65    4200    4194      65
    4200    4197      66    4209    4206      65    4212    4206      65    4212
    4209      66    4221    4218      65    4224    4218      65    4224    4221
      66    4233    4230      65    4236    4230      65    4236    4233      66
    4245    4242      65    4248    4242      65    4248    4245      66    4257
    4254      65    4260    4254      65    4260    4257      66    4269    4266
      65    4272    4266      65    4272    4269      66    4281    4278      65
    4284    4278      65    4284    4281      66    4293    4290      65    4296
    4290      65    4296    4293      66    4305    4302      65    4308    4302
      65    4308    4305      66    4317    4314      65    4320    4314      65
    4320    4317      66    4329    4326      65    4332    4326      65    4332
    4329      66    4341    4338      65    4344    4338      65    4344    4341
      66    4353    4350      65    4356    4350      65    4356    4353      66
    4365    4362      65    4368    4362      65    4368    4365      66    4377
    4374      65    4380    4374      65    4380    4377      66    4389    4386
      65    4392    4386      65    4392    4389      66    4401    4398      65
    4404    4398      65    4404    4401      66    4413    4410      65    4416
    4410      65    4416    4413      66    4425    4422      65    4428    4422
      65    4428    4425      66    4437    4434      65    4440    4434      65
    4440    4437      66    4449    4446      65    4452    4446      65    4452
    4449      66    4461    4458      65    4464    4458      65    4464    4461
      66    4473    4470      65    4476    4470      65    4476    4473      66
    4485    4482      65    4488    4482      65    4488    4485      66    4497
    4494      65    4500    4494      65    4500    4497      66    4509    4506
      65    4512    4506      65    4512    4509      66    4521    4518      65
    4524    4518      65    4524    4521      66    4533    4530      65    4536
    4530      65    4536    4533      66    4545    4542      65    4548    4542
      65    4548    4545      66    4557    4554      65    4560    4554      65
    4560    4557      66    4569    4566      65    4572    4566      65    4572
    4569      66    4581    4578      65    4584    4578      65    4584    4581
      66    4593    4590      65    4596    4590      65    4596    4593      66
    4605    4602      65    4608    4602      65    4608    4605      66    4617
    4614      65    4620    4614      65    4620    4617      66    4629    4626
      65    4632    4626      65    4632    4629      66    4641    4638      65
    4644    4638      65    4644    4641      66    4653    4650      65    4656
    4650      65    4656    4653      66    4665    4662      65    4668    4662
      65    4668    4665      66    4677    4674      65    4680    4674      65
    4680    4677      66    4689    4686      65    4692    4686      65    4692
    4689      66    4701    4698      65    4704    4698      65    4704    4701
      66    4713    4710      65    4716    4710      65    4716    4713      66
    4725    4722      65    4728    4722      65    4728    4725      66    4737
    4734      65    4740    4734      65    4740    4737      66    4749    4746
      65    4752    4746      65    4752    4749      66    4761    4758      65
    4764    4758      65    4764    4761      66    4773    4770      65    4776
    4770      65    4776    4773      66    4785    4782      65    4788    4782
      65    4788    4785      66    4797    4794      65    4800    4794      65
    4800    4797      66    4809    4806      65    4812    4806      65    4812
    4809      66    4821    4818      65    4824    4818      65    4824    4821
      66    4833    4830      65    4836    4830      65    4836    4833      66
    4845    4842      65    4848    4842      65    4848    4845      66    4857
    4854      65    4860    4854      65    4860    4857      66    4869    4866
      65    4872    4866      65    4872    4869      66    4881    4878      65
    4884    4878      65    4884    4881      66    4893    4890      65    4896
    4890      65    4896    4893      66    4905    4902      65    4908    4902
      65    4908    4905      66    4917    4914      65    4920    4914      65
    4920    4917      66    4929    4926      65    4932    4926      65    4932
    4929      66    4941    4938      65    4944    4938      65    4944    4941
      66    4953    4950      65    4956    4950      65    4956    4953      66
    4965    4962      65    4968    4962      65    4968    4965      66    4977
    4974      65    4980    4974      65    4980    4977      66    4989    4986
      65    4992    4986      65    4992    4989      66    5001    4998      65
    5004    4998      65    5004    5001      66    5013    5010      65    5016
    5010      65    5016    5013      66    5025    5022      65    5028    5022
      65    5028    5025      66    5037    5034      65    5040    5034      65
    5040    5037      66    5049    5046      65    5052    5046      65    5052
    5049      66    5061    5058      65    5064    5058      65    5064    5061
      66    5073    5070      65    5076    5070      65    5076    5073      66
    5085    5082      65    5088    5082      65    5088    5085      66    5097
    5094      65    5100    5094      65    5100    5097      66    5109    5106
      65    5112    5106      65    5112    5109      66    5121    5118      65
    5124    5118      65    5124    5121      66    5133    5130      65    5136
    5130      65    5136    5133      66    5145    5142      65    5148    5142
      65    5148    5145      66    5157    5154      65    5160    5154      65
    5160    5157      66    5169    5166      65    5172    5166      65    5172
    5169      66    5181    5178      65    5184    5178      65    5184    5181
      66    5193    5190      65    5196    5190      65    5196    5193      66
    5205    5202      65    5208    5202      65    5208    5205      66    5217
    5214      65    5220    5214      65    5220    5217      66    5229    5226
      65    5232    5226      65    5232    5229      66    5241    5238      65
    5244    5238      65    5244    5241      66    5253    5250      65    5256
    5250      65    5256    5253      66    5265    5262      65    5268    5262
      65    5268    5265      66    5277    5274      65    5280    5274      65
    5280    5277      66    5289    5286      65    5292    5286      65    5292
    5289      66    5301    5298      65    5304    5298      65    5304    5301
      66    5313    5310      65    5316    5310      65    5316    5313      66
    5325    5322      65    5328    5322      65    5328    5325      66    5337
    5334      65    5340    5334      65    5340    5337      66    5349    5346
      65    5352    5346      65    5352    5349      66    5361    5358      65
    5364    5358      65    5364    5361      66    5373    5370      65    5376
    5370      65    5376    5373      66    5385    5382      65    5388    5382
      65    5388    5385      66    5397    5394      65    5400    5394      65
    5400    5397      66    5409    5406      65    5412    5406      65    5412
    5409      66    5421    5418      65    5424    5418      65    5424    5421
      66    5433    5430      65    5436    5430      65    5436    5433      66
    5445    5442      65    5448    5442      65    5448    5445      66    5457
    5454      65    5460    5454      65    5460    5457      66    5469    5466
      65    5472    5466      65    5472    5469      66    5481    5478      65
    5484    5478      65    5484    5481      66    5493    5490      65    5496
    5490      65    5496    5493      66    5505    5502      65    5508    5502
      65    5508    5505      66    5517    5514      65    5520    5514      65
    5520    5517      66    5529    5526      65    5532    5526      65    5532
    5529      66    5541    5538      65    5544    5538      65    5544    5541
      66    5553    5550      65    5556    5550      65    5556    5553      66
    5565    5562      65    5568    5562      65    5568    5565      66    5577
    5574      65    5580    5574      65    5580    5577      66    5589    5586
      65    5592    5586      65    5592    5589      66    5601    5598      65
    5604    5598      65    5604    5601      66    5613    5610      65    5616
    5610      65    5616    5613      66    5625    5622      65    5628    5622
      65    5628    5625      66    5637    5634      65    5640    5634      65
    5640    5637      66    5649    5646      65    5652    5646      65    5652
    5649      66    5661    5658      65    5664    5658      65    5664    5661
      66    5673    5670      65    5676    5670      65    5676    5673      66
    5685    5682      65    5688    5682      65    5688    5685      66    5697
    5694      65    5700    5694      65    5700    5697      66    5709    5706
      65    5712    5706      65    5712    5709      66    5721    5718      65
    5724    5718      65    5724    5721      66    5733    5730      65    5736
    5730      65    5736    5733      66    5745    5742      65    5748    5742
      65    5748    5745      66    5757    5754      65    5760    5754      65
    5760    5757      66    5769    5766      65    5772    5766      65    5772
    5769      66    5781    5778      65    5784    5778      65    5784    5781
      66    5793    5790      65    5796    5790      65    5796    5793      66
    5805    5802      65    5808    5802      65    5808    5805      66    5817
    5814      65    5820    5814      65    5820    5817      66    5829    5826
      65    5832    5826      65    5832    5829      66    5841    5838      65
    5844    5838      65    5844    5841      66    5853    5850      65    5856
    5850      65    5856    5853      66    5865    5862      65    5868    5862
      65    5868    5865      66    5877    5874      65    5880    5874      65
    5880    5877      66    5889    5886      65    5892    5886      65    5892
    5889      66    5901    5898      65    5904    5898      65    5904    5901
      66    5913    5910      65    5916    5910      65    5916    5913      66
    5925    5922      65    5928    5922      65    5928    5925      66    5937
    5934      65    5940    5934      65    5940    5937      66    5949    5946
      65    5952    5946      65    5952    5949      66    5961    5958      65
    5964    5958      65    5964    5961      66    5973    5970      65    5976
    5970      65    5976    5973      66    5985    5982      65    5988    5982
      65    5988    5985      66    5997    5994      65    6000    5994      65
    6000    5997      66    6009    6006      65    6012    6006      65    6012
    6009      66    6021    6018      65    6024    6018      65    6024    6021
      66    6033    6030      65    6036    6030      65    6036    6033      66
    6045    6042      65    6048    6042      65    6048    6045      66    6057
    6054      65    6060    6054      65    6060    6057      66    6069    6066
      65    6072    6066      65    6072    6069      66    6081    6078      65
    6084    6078      65    6084    6081      66    6093    6090      65    6096
    6090      65    6096    6093      66    6105    6102      65    6108    6102
      65    6108    6105      66    6117    6114      65    6120    6114      65
    6120    6117      66    6129    6126      65    6132    6126      65    6132
    6129      66    6141    6138      65    6144    6138      65    6144    6141
      66    6153    6150      65    6156    6150      65    6156    6153      66
    6165    6162      65    6168    6162      65    6168    6165      66    6177
    6174      65    6180    6174      65    6180    6177      66    6189    6186
      65    6192    6186      65    6192    6189      66    6201    6198      65
    6204    6198      65    6204    6201      66    6213    6210      65    6216
    6210      65    6216    6213      66    6225    6222      65    6228    6222
      65    6228    6225      66    6237    6234      65    6240    6234      65
    6240    6237      66    6249    6246      65    6252    6246      65    6252
    6249      66    6261    6258      65    6264    6258      65    6264    6261
      66    6273    6270      65    6276    6270      65    6276    6273      66
    6285    6282      65    6288    6282      65    6288    6285      66    6297
    6294      65    6300    6294      65    6300    6297      66    6309    6306
      65    6312    6306      65    6312    6309      66    6321    6318      65
    6324    6318      65    6324    6321      66    6333    6330      65    6336
    6330      65    6336    6333      66    6345    6342      65    6348    6342
      65    6348    6345      66    6357    6354      65    6360    6354      65
    6360    6357      66    6369    6366      65    6372    6366      65    6372
    6369      66    6381    6378      65    6384    6378      65    6384    6381
      66    6393    6390      65    6396    6390      65    6396    6393      66
    6405    6402      65    6408    6402      65    6408    6405      66    6417
    6414      65    6420    6414      65    6420    6417      66    6429    6426
      65    6432    6426      65    6432    6429      66    6441    6438      65
    6444    6438      65    6444    6441      66    6453    6450      65    6456
    6450      65    6456    6453      66    6465    6462      65    6468    6462
      65    6468    6465      66    6477    6474      65    6480    6474      65
    6480    6477      66    6489    6486      65    6492    6486      65    6492
    6489      66    6501    6498      65    6504    6498      65    6504    6501
      66    6513    6510      65    6516    6510      65    6516    6513      66
    6525    6522      65    6528    6522      65    6528    6525      66    6537
    6534      65    6540    6534      65    6540    6537      66    6549    6546
      65    6552    6546      65    6552    6549      66    6561    6558      65
    6564    6558      65    6564    6561      66    6573    6570      65    6576
    6570      65    6576    6573      66    6585    6582      65    6588    6582
      65    6588    6585      66    6597    6594      65    6600    6594      65
    6600    6597      66    6609    6606      65    6612    6606      65    6612
    6609      66    6621    6618      65    6624    6618      65    6624    6621
      66    6633    6630      65    6636    6630      65    6636    6633      66
    6645    6642      65    6648    6642      65    6648    6645      66    6657
    6654      65    6660    6654      65    6660    6657      66    6669    6666
      65    6672    6666      65    6672    6669      66    6681    6678      65
    6684    6678      65    6684    6681      66    6693    6690      65    6696
    6690      65    6696    6693      66    6705    6702      65    6708    6702
      65    6708    6705      66    6717    6714      65    6720    6714      65
    6720    6717      66    6729    6726      65    6732    6726      65    6732
    6729      66    6741    6738      65    6744    6738      65    6744    6741
      66    6753    6750      65    6756    6750      65    6756    6753      66
    6765    6762      65    6768    6762      65    6768    6765      66    6777
    6774      65    6780    6774      65    6780    6777      66    6789    6786
      65    6792    6786      65    6792    6789      66    6801    6798      65
    6804    6798      65    6804    6801      66    6813    6810      65    6816
    6810      65    6816    6813      66    6825    6822      65    6828    6822
      65    6828    6825      66    6837    6834      65    6840    6834      65
    6840    6837      66    6849    6846      65    6852    6846      65    6852
    6849      66    6861    6858      65    6864    6858      65    6864    6861
      66    6873    6870      65    6876    6870      65    6876    6873      66
    6885    6882      65    6888    6882      65    6888    6885      66    6897
    6894      65    6900    6894      65    6900    6897      66    6909    6906
      65    6912    6906      65    6912    6909      66    6921    6918      65
    6924    6918      65    6924    6921      66    6933    6930      65    6936
    6930      65    6936    6933      66    6945    6942      65    6948    6942
      65    6948    6945      66    6957    6954      65    6960    6954      65
    6960    6957      66    6969    6966      65    6972    6966      65    6972
    6969      66    6981    6978      65    6984    6978      65    6984    6981
      66    6993    6990      65    6996    6990      65    6996    6993      66
    7005    7002      65    7008    7002      65    7008    7005      66    7017
    7014      65    7020    7014      65    7020    7017      66    7029    7026
      65    7032    7026      65    7032    7029      66    7041    7038      65
    7044    7038      65    7044    7041      66    7053    7050      65    7056
    7050      65    7056    7053      66    7065    7062      65    7068    7062
      65    7068    7065      66    7077    7074      65    7080    7074      65
    7080    7077      66    7089    7086      65    7092    7086      65    7092
    7089      66    7101    7098      65    7104    7098      65    7104    7101
      66    7113    7110      65    7116    7110      65    7116    7113      66
    7125    7122      65    7128    7122      65    7128    7125      66    7137
    7134      65    7140    7134      65    7140    7137      66    7149    7146
      65    7152    7146      65    7152    7149      66    7161    7158      65
    7164    7158      65    7164    7161      66    7173    7170      65    7176
    7170      65    7176    7173      66    7185    7182      65    7188    7182
      65    7188    7185      66    7197    7194      65    7200    7194      65
    7200    7197      66    7209    7206      65    7212    7206      65    7212
    7209      66    7221    7218      65    7224    7218      65    7224    7221
      66    7233    7230      65    7236    7230      65    7236    7233      66
    7245    7242      65    7248    7242      65    7248    7245      66    7257
    7254      65    7260    7254      65    7260    7257      66    7269    7266
      65    7272    7266      65    7272    7269      66    7281    7278      65
    7284    7278      65    7284    7281      66    7293    7290      65    7296
    7290      65    7296    7293      66    7305    7302      65    7308    7302
      65    7308    7305      66    7317    7314      65    7320    7314      65
    7320    7317      66    7329    7326      65    7332    7326      65    7332
    7329      66    7341    7338      65    7344    7338      65    7344    7341
      66    7353    7350      65    7356    7350      65    7356    7353      66
    7365    7362      65    7368    7362      65    7368    7365      66    7377
    7374      65    7380    7374      65    7380    7377      66    7389    7386
      65    7392    7386      65    7392    7389      66    7401    7398      65
    7404    7398      65    7404    7401      66    7413    7410      65    7416
    7410      65    7416    7413      66    7425    7422      65    7428    7422
      65    7428    7425      66    7437    7434      65    7440    7434      65
    7440    7437      66    7449    7446      65    7452    7446      65    7452
    7449      66    7461    7458      65    7464    7458      65    7464    7461
      66    7473    7470      65    7476    7470      65    7476    7473      66
    7485    7482      65    7488    7482      65    7488    7485      66    7497
    7494      65    7500    7494      65    7500    7497      66    7509    7506
      65    7512    7506      65    7512    7509      66    7521    7518      65
    7524    7518      65    7524    7521      66    7533    7530      65    7536
    7530      65    7536    7533      66    7545    7542      65    7548    7542
      65    7548    7545      66    7557    7554      65    7560    7554      65
    7560    7557      66    7569    7566      65    7572    7566      65    7572
    7569      66    7581    7578      65    7584    7578      65    7584    7581
      66    7593    7590      65    7596    7590      65    7596    7593      66
    7605    7602      65    7608    7602      65    7608    7605      66    7617
    7614      65    7620    7614      65    7620    7617      66    7629    7626
      65    7632    7626      65    7632    7629      66    7641    7638      65
    7644    7638      65    7644    7641      66    7653    7650      65    7656
    7650      65    7656    7653      66    7665    7662      65    7668    7662
      65    7668    7665      66    7677    7674      65    7680    7674      65
    7680    7677      66    7689    7686      65    7692    7686      65    7692
    7689      66    7701    7698      65    7704    7698      65    7704    7701
      66    7713    7710      65    7716    7710      65    7716    7713      66
    7725    7722      65    7728    7722      65    7728    7725      66    7737
    7734      65    7740    7734      65    7740    7737      66    7749    7746
      65    7752    7746      65    7752    7749      66    7761    7758      65
    7764    7758      65    7764    7761      66    7773    7770      65    7776
    7770      65    7776    7773      66    7785    7782      65    7788    7782
      65    7788    7785      66    7797    7794      65    7800    7794      65
    7800    7797      66    7809    7806      65    7812    7806      65    7812
    7809      66    7821    7818      65    7824    7818      65    7824    7821
      66    7833    7830      65    7836    7830      65    7836    7833      66
    7845    7842      65    7848    7842      65    7848    7845      66    7857
    7854      65    7860    7854      65    7860    7857      66    7869    7866
      65    7872    7866      65    7872    7869      66    7881    7878      65
    7884    7878      65    7884    7881      66    7893    7890      65    7896
    7890      65    7896    7893      66    7905    7902      65    7908    7902
      65    7908    7905      66    7917    7914      65    7920    7914      65
    7920    7917      66    7929    7926      65    7932    7926      65    7932
    7929      66    7941    7938      65    7944    7938      65    7944    7941
      66    7953    7950      65    7956    7950      65    7956    7953      66
    7965    7962      65    7968    7962      65    7968    7965      66    7977
    7974      65    7980    7974      65    7980    7977      66    7989    7986
      65    7992    7986      65    7992    7989      66    8001    7998      65
    8004    7998      65    8004    8001      66    8013    8010      65    8016
    8010      65    8016    8013      66    8025    8022      65    8028    8022
      65    8028    8025      66    8037    8034      65    8040    8034      65
    8040    8037      66    8049    8046      65    8052    8046      65    8052
    8049      66    8061    8058      65    8064    8058      65    8064    8061
      66    8073    8070      65    8076    8070      65    8076    8073      66
    8085    8082      65    8088    8082      65    8088    8085      66    8097
    8094      65    8100    8094      65    8100    8097      66    8109    8106
      65    8112    8106      65    8112    8109      66    8121    8118      65
    8124    8118      65    8124    8121      66    8133    8130      65    8136
    8130      65    8136    8133      66    8145    8142      65    8148    8142
      65    8148    8145      66    8157    8154      65    8160    8154      65
    8160    8157      66    8169    8166      65    8172    8166      65    8172
    8169      66    8181    8178      65    8184    8178      65    8184    8181
      66    8193    8190      65    8196    8190      65    8196    8193      66
    8205    8202      65    8208    8202      65    8208    8205      66    8217
    8214      65    8220    8214      65    8220    8217      66    8229    8226
      65    8232    8226      65    8232    8229      66    8241    8238      65
    8244    8238      65    8244    8241      66    8253    8250      65    8256
    8250      65    8256    8253      66    8265    8262      65    8268    8262
      65    8268    8265      66    8277    8274      65    8280    8274      65
    8280    8277      66    8289    8286      65    8292    8286      65    8292
    8289      66    8301    8298      65    8304    8298      65    8304    8301
      66    8313    8310      65    8316    8310      65    8316    8313      66
    8325    8322      65    8328    8322      65    8328    8325      66    8337
    8334      65    8340    8334      65    8340    8337      66    8349    8346
      65    8352    8346      65    8352    8349      66    8361    8358      65
    8364    8358      65    8364    8361      66    8373    8370      65    8376
    8370      65    8376    8373      66    8385    8382      65    8388    8382
      65    8388    8385      66    8397    8394      65    8400    8394      65
    8400    8397      66    8409    8406      65    8412    8406      65    8412
    8409      66    8421    8418      65    8424    8418      65    8424    8421
      66    8433    8430      65    8436    8430      65    8436    8433      66
    8445    8442      65    8448    8442      65    8448    8445      66    8457
    8454      65    8460    8454      65    8460    8457      66    8469    8466
      65    8472    8466      65    8472    8469      66    8481    8478      65
    8484    8478      65    8484    8481      66    8493    8490      65    8496
    8490      65    8496    8493      66    8505    8502      65    8508    8502
      65    8508    8505      66    8517    8514      65    8520    8514      65
    8520    8517      66    8529    8526      65    8532    8526      65    8532
    8529      66    8541    8538      65    8544    8538      65    8544    8541
      66    8553    8550      65    8556    8550      65    8556    8553      66
    8565    8562      65    8568    8562      65    8568    8565      66    8577
    8574      65    8580    8574      65    8580    8577      66    8589    8586
      65    8592    8586      65    8592    8589      66    8601    8598      65
    8604    8598      65    8604    8601      66    8613    8610      65    8616
    8610      65    8616    8613      66    8625    8622      65    8628    8622
      65    8628    8625      66    8637    8634      65    8640    8634      65
    8640    8637      66    8649    8646      65    8652    8646      65    8652
    8649      66    8661    8658      65    8664    8658      65    8664    8661
      66    8673    8670      65    8676    8670      65    8676    8673      66
    8685    8682      65    8688    8682      65    8688    8685      66    8697
    8694      65    8700    8694      65    8700    8697      66    8709    8706
      65    8712    8706      65    8712    8709      66    8721    8718      65
    8724    8718      65    8724    8721      66    8733    8730      65    8736
    8730      65    8736    8733      66    8745    8742      65    8748    8742
      65    8748    8745      66    8757    8754      65    8760    8754      65
    8760    8757      66    8769    8766      65    8772    8766      65    8772
    8769      66    8781    8778      65    8784    8778      65    8784    8781
      66    8793    8790      65    8796    8790      65    8796    8793      66
    8805    8802      65    8808    8802      65    8808    8805      66    8817
    8814      65    8820    8814      65    8820    8817      66    8829    8826
      65    8832    8826      65    8832    8829      66    8841    8838      65
    8844    8838      65    8844    8841      66    8853    8850      65    8856
    8850      65    8856    8853      66    8865    8862      65    8868    8862
      65    8868    8865      66    8877    8874      65    8880    8874      65
    8880    8877      66    8889    8886      65    8892    8886      65    8892
    8889      66    8901    8898      65    8904    8898      65    8904    8901
      66    8913    8910      65    8916    8910      65    8916    8913      66
    8925    8922      65    8928    8922      65    8928    8925      66    8937
    8934      65    8940    8934      65    8940    8937      66    8949    8946
      65    8952    8946      65    8952    8949      66    8961    8958      65
    8964    8958      65    8964    8961      66    8973    8970      65    8976
    8970      65    8976    8973      66    8985    8982      65    8988    8982
      65    8988    8985      66    8997    8994      65    9000    8994      65
    9000    8997      66    9009    9006      65    9012    9006      65    9012
    9009      66    9021    9018      65    9024    9018      65    9024    9021
      66    9033    9030      65    9036    9030      65    9036    9033      66
    9045    9042      65    9048    9042      65    9048    9045      66    9057
    9054      65    9060    9054      65    9060    9057      66    9069    9066
      65    9072    9066      65    9072    9069      66    9081    9078      65
    9084    9078      65    9084    9081      66    9093    9090      65    9096
    9090      65    9096    9093      66    9105    9102      65    9108    9102
      65    9108    9105      66    9117    9114      65    9120    9114      65
    9120    9117      66    9129    9126      65    9132    9126      65    9132
    9129      66    9141    9138      65    9144    9138      65    9144    9141
      66    9153    9150      65    9156    9150      65    9156    9153      66
    9165    9162      65    9168    9162      65    9168    9165      66    9177
    9174      65    9180    9174      65    9180    9177      66    9189    9186
      65    9192    9186      65    9192    9189      66    9201    9198      65
    9204    9198      65    9204    9201      66    9213    9210      65    9216
    9210      65    9216    9213      66    9225    9222      65    9228    9222
      65    9228    9225      66    9237    9234      65    9240    9234      65
    9240    9237      66    9249    9246      65    9252    9246      65    9252
    9249      66    9261    9258      65    9264    9258      65    9264    9261
      66    9273    9270      65    9276    9270      65    9276    9273      66
    9285    9282      65    9288    9282      65    9288    9285      66    9297
    9294      65    9300    9294      65    9300    9297      66    9309    9306
      65    9312    9306      65    9312    9309      66    9321    9318      65
    9324    9318      65    9324    9321      66    9333    9330      65    9336
    9330      65    9336    9333      66    9345    9342      65    9348    9342
      65    9348    9345      66    9357    9354      65    9360    9354      65
    9360    9357      66    9369    9366      65    9372    9366      65    9372
    9369      66    9381    9378      65    9384    9378      65    9384    9381
      66    9393    9390      65    9396    9390      65    9396    9393      66
    9405    9402      65    9408    9402      65    9408    9405      66    9417
    9414      65    9420    9414      65    9420    9417      66    9429    9426
      65    9432    9426      65    9432    9429      66    9441    9438      65
    9444    9438      65    9444    9441      66    9453    9450      65    9456
    9450      65    9456    9453      66    9465    9462      65    9468    9462
      65    9468    9465      66    9477    9474      65    9480    9474      65
    9480    9477      66    9489    9486      65    9492    9486      65    9492
    9489      66    9501    9498      65    9504    9498      65    9504    9501
      66    9513    9510      65    9516    9510      65    9516    9513      66
    9525    9522      65    9528    9522      65    9528    9525      66    9537
    9534      65    9540    9534      65    9540    9537      66    9549    9546
      65    9552    9546      65    9552    9549      66    9561    9558      65
    9564    9558      65    9564    9561      66    9573    9570      65    9576
    9570      65    9576    9573      66    9585    9582      65    9588    9582
      65    9588    9585      66    9597    9594      65    9600    9594      65
    9600    9597      66    9609    9606      65    9612    9606      65    9612
    9609      66    9621    9618      65    9624    9618      65    9624    9621
      66    9633    9630      65    9636    9630      65    9636    9633      66
    9645    9642      65    9648    9642      65    9648    9645      66    9657
    9654      65    9660    9654      65    9660    9657      66    9669    9666
      65    9672    9666      65    9672    9669      66    9681    9678      65
    9684    9678      65    9684    9681      66    9693    9690      65    9696
    9690      65    9696    9693      66    9705    9702      65    9708    9702
      65    9708    9705      66    9717    9714      65    9720    9714      65
    9720    9717      66    9729    9726      65    9732    9726      65    9732
    9729      66    9741    9738      65    9744    9738      65    9744    9741
      66    9753    9750      65    9756    9750      65    9756    9753      66
    9765    9762      65    9768    9762      65    9768    9765      66    9777
    9774      65    9780    9774      65    9780    9777      66    9789    9786
      65    9792    9786      65    9792    9789      66    9801    9798      65
    9804    9798      65    9804    9801      66    9813    9810      65    9816
    9810      65    9816    9813      66    9825    9822      65    9828    9822
      65    9828    9825      66    9837    9834      65    9840    9834      65
    9840    9837      66    9849    9846      65    9852    9846      65    9852
    9849      66    9861    9858      65    9864    9858      65    9864    9861
      66    9873    9870      65    9876    9870      65    9876    9873      66
    9885    9882      65    9888    9882      65    9888    9885      66    9897
    9894      65    9900    9894      65    9900    9897      66    9909    9906
      65    9912    9906      65    9912    9909      66    9921    9918      65
    9924    9918      65    9924    9921      66    9933    9930      65    9936
    9930      65    9936    9933      66    9945    9942      65    9948    9942
      65    9948    9945      66    9957    9954      65    9960    9954      65
    9960    9957      66    9969    9966      65    9972    9966      65    9972
    9969      66    9981    9978      65    9984    9978      65    9984    9981
      66    9993    9990      65    9996    9990      65    9996    9993      66
   10005   10002      65   10008   10002      65   10008   10005      66   10017
   10014      65   10020   10014      65   10020   10017      66   10029   10026
      65   10032   10026      65   10032   10029      66   10041   10038      65
   10044   10038      65   10044   10041      66   10053   10050      65   10056
   10050      65   10056   10053      66   10065   10062      65   10068   10062
      65   10068   10065      66   10077   10074      65   10080   10074      65
   10080   10077      66   10089   10086      65   10092   10086      65   10092
   10089      66   10101   10098      65   10104   10098      65   10104   10101
      66   10113   10110      65   10116   10110      65   10116   10113      66
   10125   10122      65   10128   10122      65   10128   10125      66   10137
   10134      65   10140   10134      65   10140   10137      66   10149   10146
      65   10152   10146      65   10152   10149      66   10161   10158      65
   10164   10158      65   10164   10161      66   10173   10170      65   10176
   10170      65   10176   10173      66   10185   10182      65   10188   10182
      65   10188   10185      66   10197   10194      65   10200   10194      65
   10200   10197      66   10209   10206      65   10212   10206      65   10212
   10209      66   10221   10218      65   10224   10218      65   10224   10221
      66   10233   10230      65   10236   10230      65   10236   10233      66
   10245   10242      65   10248   10242      65   10248   10245      66   10257
   10254      65   10260   10254      65   10260   10257      66   10269   10266
      65   10272   10266      65   10272   10269      66   10281   10278      65
   10284   10278      65   10284   10281      66   10293   10290      65   10296
   10290      65   10296   10293      66   10305   10302      65   10308   10302
      65   10308   10305      66   10317   10314      65   10320   10314      65
   10320   10317      66   10329   10326      65   10332   10326      65   10332
   10329      66   10341   10338      65   10344   10338      65   10344   10341
      66   10353   10350      65   10356   10350      65   10356   10353      66
   10365   10362      65   10368   10362      65   10368   10365      66   10377
   10374      65   10380   10374      65   10380   10377      66   10389   10386
      65   10392   10386      65   10392   10389      66   10401   10398      65
   10404   10398      65   10404   10401      66   10413   10410      65   10416
   10410      65   10416   10413      66   10425   10422      65   10428   10422
      65   10428   10425      66   10437   10434      65   10440   10434      65
   10440   10437      66   10449   10446      65   10452   10446      65   10452
   10449      66   10461   10458      65   10464   10458      65   10464   10461
      66   10473   10470      65   10476   10470      65   10476   10473      66
   10485   10482      65   10488   10482      65   10488   10485      66   10497
   10494      65   10500   10494      65   10500   10497      66   10509   10506
      65   10512   10506      65   10512   10509      66   10521   10518      65
   10524   10518      65   10524   10521      66   10533   10530      65   10536
   10530      65   10536   10533      66   10545   10542      65   10548   10542
      65   10548   10545      66   10557   10554      65   10560   10554      65
   10560   10557      66   10569   10566      65   10572   10566      65   10572
   10569      66   10581   10578      65   10584   10578      65   10584   10581
      66   10593   10590      65   10596   10590      65   10596   10593      66
   10605   10602      65   10608   10602      65   10608   10605      66   10617
   10614      65   10620   10614      65   10620   10617      66   10629   10626
      65   10632   10626      65   10632   10629      66   10641   10638      65
   10644   10638      65   10644   10641      66   10653   10650      65   10656
   10650      65   10656   10653      66   10665   10662      65   10668   10662
      65   10668   10665      66   10677   10674      65   10680   10674      65
   10680   10677      66   10689   10686      65   10692   10686      65   10692
   10689      66   10701   10698      65   10704   10698      65   10704   10701
      66   10713   10710      65   10716   10710      65   10716   10713      66
   10725   10722      65   10728   10722      65   10728   10725      66   10737
   10734      65   10740   10734      65   10740   10737      66   10749   10746
      65   10752   10746      65   10752   10749      66   10761   10758      65
   10764   10758      65   10764   10761      66   10773   10770      65   10776
   10770      65   10776   10773      66   10785   10782      65   10788   10782
      65   10788   10785      66   10797   10794      65   10800   10794      65
   10800   10797      66   10809   10806      65   10812   10806      65   10812
   10809      66   10821   10818      65   10824   10818      65   10824   10821
      66   10833   10830      65   10836   10830      65   10836   10833      66
   10845   10842      65   10848   10842      65   10848   10845      66   10857
   10854      65   10860   10854      65   10860   10857      66   10869   10866
      65   10872   10866      65   10872   10869      66   10881   10878      65
   10884   10878      65   10884   10881      66   10893   10890      65   10896
   10890      65   10896   10893      66   10905   10902      65   10908   10902
      65   10908   10905      66   10917   10914      65   10920   10914      65
   10920   10917      66   10929   10926      65   10932   10926      65   10932
   10929      66   10941   10938      65   10944   10938      65   10944   10941
      66   10953   10950      65   10956   10950      65   10956   10953      66
   10965   10962      65   10968   10962      65   10968   10965      66   10977
   10974      65   10980   10974      65   10980   10977      66   10989   10986
      65   10992   10986      65   10992   10989      66   11001   10998      65
   11004   10998      65   11004   11001      66   11013   11010      65   11016
   11010      65   11016   11013      66   11025   11022      65   11028   11022
      65   11028   11025      66   11037   11034      65   11040   11034      65
   11040   11037      66   11049   11046      65   11052   11046      65   11052
   11049      66   11061   11058      65   11064   11058      65   11064   11061
      66   11073   11070      65   11076   11070      65   11076   11073      66
   11085   11082      65   11088   11082      65   11088   11085      66   11097
   11094      65   11100   11094      65   11100   11097      66   11109   11106
      65   11112   11106      65   11112   11109      66   11121   11118      65
   11124   11118      65   11124   11121      66   11133   11130      65   11136
   11130      65   11136   11133      66   11145   11142      65   11148   11142
      65   11148   11145      66   11157   11154      65   11160   11154      65
   11160   11157      66   11169   11166      65   11172   11166      65   11172
   11169      66   11181   11178      65   11184   11178      65   11184   11181
      66   11193   11190      65   11196   11190      65   11196   11193      66
   11205   11202      65   11208   11202      65   11208   11205      66   11217
   11214      65   11220   11214      65   11220   11217      66   11229   11226
      65   11232   11226      65   11232   11229      66   11241   11238      65
   11244   11238      65   11244   11241      66   11253   11250      65   11256
   11250      65   11256   11253      66   11265   11262      65   11268   11262
      65   11268   11265      66   11277   11274      65   11280   11274      65
   11280   11277      66   11289   11286      65   11292   11286      65   11292
   11289      66   11301   11298      65   11304   11298      65   11304   11301
      66   11313   11310      65   11316   11310      65   11316   11313      66
   11325   11322      65   11328   11322      65   11328   11325      66   11337
   11334      65   11340   11334      65   11340   11337      66   11349   11346
      65   11352   11346      65   11352   11349      66   11361   11358      65
   11364   11358      65   11364   11361      66   11373   11370      65   11376
   11370      65   11376   11373      66   11385   11382      65   11388   11382
      65   11388   11385      66   11397   11394      65   11400   11394      65
   11400   11397      66   11409   11406      65   11412   11406      65   11412
   11409      66   11421   11418      65   11424   11418      65   11424   11421
      66   11433   11430      65   11436   11430      65   11436   11433      66
   11445   11442      65   11448   11442      65   11448   11445      66   11457
   11454      65   11460   11454      65   11460   11457      66   11469   11466
      65   11472   11466      65   11472   11469      66   11481   11478      65
   11484   11478      65   11484   11481      66   11493   11490      65   11496
   11490      65   11496   11493      66   11505   11502      65   11508   11502
      65   11508   11505      66   11517   11514      65   11520   11514      65
   11520   11517      66   11529   11526      65   11532   11526      65   11532
   11529      66   11541   11538      65   11544   11538      65   11544   11541
      66   11553   11550      65   11556   11550      65   11556   11553      66
   11565   11562      65   11568   11562      65   11568   11565      66   11577
   11574      65   11580   11574      65   11580   11577      66   11589   11586
      65   11592   11586      65   11592   11589      66   11601   11598      65
   11604   11598      65   11604   11601      66   11613   11610      65   11616
   11610      65   11616   11613      66   11625   11622      65   11628   11622
      65   11628   11625      66   11637   11634      65   11640   11634      65
   11640   11637      66   11649   11646      65   11652   11646      65   11652
   11649      66   11661   11658      65   11664   11658      65   11664   11661
      66   11673   11670      65   11676   11670      65   11676   11673      66
   11685   11682      65   11688   11682      65   11688   11685      66   11697
   11694      65   11700   11694      65   11700   11697      66   11709   11706
      65   11712   11706      65   11712   11709      66   11721   11718      65
   11724   11718      65   11724   11721      66   11733   11730      65   11736
   11730      65   11736   11733      66   11745   11742      65   11748   11742
      65   11748   11745      66   11757   11754      65   11760   11754      65
   11760   11757      66   11769   11766      65   11772   11766      65   11772
   11769      66   11781   11778      65   11784   11778      65   11784   11781
      66   11793   11790      65   11796   11790      65   11796   11793      66
   11805   11802      65   11808   11802      65   11808   11805      66   11817
   11814      65   11820   11814      65   11820   11817      66   11829   11826
      65   11832   11826      65   11832   11829      66   11841   11838      65
   11844   11838      65   11844   11841      66   11853   11850      65   11856
   11850      65   11856   11853      66   11865   11862      65   11868   11862
      65   11868   11865      66   11877   11874      65   11880   11874      65
   11880   11877      66   11889   11886      65   11892   11886      65   11892
   11889      66   11901   11898      65   11904   11898      65   11904   11901
      66   11913   11910      65   11916   11910      65   11916   11913      66
   11925   11922      65   11928   11922      65   11928   11925      66   11937
   11934      65   11940   11934      65   11940   11937      66   11949   11946
      65   11952   11946      65   11952   11949      66   11961   11958      65
   11964   11958      65   11964   11961      66   11973   11970      65   11976
   11970      65   11976   11973      66   11985   11982      65   11988   11982
      65   11988   11985      66   11997   11994      65   12000   11994      65
   12000   11997      66   12009   12006      65   12012   12006      65   12012
   12009      66   12021   12018      65   12024   12018      65   12024   12021
      66   12033   12030      65   12036   12030      65   12036   12033      66
   12045   12042      65   12048   12042      65   12048   12045      66   12057
   12054      65   12060   12054      65   12060   12057      66   12069   12066
      65   12072   12066      65   12072   12069      66   12081   12078      65
   12084   12078      65   12084   12081      66   12093   12090      65   12096
   12090      65   12096   12093      66   12105   12102      65   12108   12102
      65   12108   12105      66   12117   12114      65   12120   12114      65
   12120   12117      66   12129   12126      65   12132   12126      65   12132
   12129      66   12141   12138      65   12144   12138      65   12144   12141
      66   12153   12150      65   12156   12150      65   12156   12153      66
   12165   12162      65   12168   12162      65   12168   12165      66   12177
   12174      65   12180   12174      65   12180   12177      66   12189   12186
      65   12192   12186      65   12192   12189      66   12201   12198      65
   12204   12198      65   12204   12201      66   12213   12210      65   12216
   12210      65   12216   12213      66   12225   12222      65   12228   12222
      65   12228   12225      66   12237   12234      65   12240   12234      65
   12240   12237      66   12249   12246      65   12252   12246      65   12252
   12249      66   12261   12258      65   12264   12258      65   12264   12261
      66   12273   12270      65   12276   12270      65   12276   12273      66
   12285   12282      65   12288   12282      65   12288   12285      66   12297
   12294      65   12300   12294      65   12300   12297      66   12309   12306
      65   12312   12306      65   12312   12309      66   12321   12318      65
   12324   12318      65   12324   12321      66   12333   12330      65   12336
   12330      65   12336   12333      66   12345   12342      65   12348   12342
      65   12348   12345      66   12357   12354      65   12360   12354      65
   12360   12357      66   12369   12366      65   12372   12366      65   12372
   12369      66   12381   12378      65   12384   12378      65   12384   12381
      66   12393   12390      65   12396   12390      65   12396   12393      66
   12405   12402      65   12408   12402      65   12408   12405      66   12417
   12414      65   12420   12414      65   12420   12417      66   12429   12426
      65   12432   12426      65   12432   12429      66   12441   12438      65
   12444   12438      65   12444   12441      66   12453   12450      65   12456
   12450      65   12456   12453      66   12465   12462      65   12468   12462
      65   12468   12465      66   12477   12474      65   12480   12474      65
   12480   12477      66   12489   12486      65   12492   12486      65   12492
   12489      66   12501   12498      65   12504   12498      65   12504   12501
      66   12513   12510      65   12516   12510      65   12516   12513      66
   12525   12522      65   12528   12522      65   12528   12525      66   12537
   12534      65   12540   12534      65   12540   12537      66   12549   12546
      65   12552   12546      65   12552   12549      66   12561   12558      65
   12564   12558      65   12564   12561      66   12573   12570      65   12576
   12570      65   12576   12573      66   12585   12582      65   12588   12582
      65   12588   12585      66   12597   12594      65   12600   12594      65
   12600   12597      66   12609   12606      65   12612   12606      65   12612
   12609      66   12621   12618      65   12624   12618      65   12624   12621
      66   12633   12630      65   12636   12630      65   12636   12633      66
   12645   12642      65   12648   12642      65   12648   12645      66   12657
   12654      65   12660   12654      65   12660   12657      66   12669   12666
      65   12672   12666      65   12672   12669      66   12681   12678      65
   12684   12678      65   12684   12681      66   12693   12690      65   12696
   12690      65   12696   12693      66   12705   12702      65   12708   12702
      65   12708   12705      66   12717   12714      65   12720   12714      65
   12720   12717      66   12729   12726      65   12732   12726      65   12732
   12729      66   12741   12738      65   12744   12738      65   12744   12741
      66   12753   12750      65   12756   12750      65   12756   12753      66
   12765   12762      65   12768   12762      65   12768   12765      66   12777
   12774      65   12780   12774      65   12780   12777      66   12789   12786
      65   12792   12786      65   12792   12789      66   12801   12798      65
   12804   12798      65   12804   12801      66   12813   12810      65   12816
   12810      65   12816   12813      66   12825   12822      65   12828   12822
      65   12828   12825      66   12837   12834      65   12840   12834      65
   12840   12837      66   12849   12846      65   12852   12846      65   12852
   12849      66   12861   12858      65   12864   12858      65   12864   12861
      66   12873   12870      65   12876   12870      65   12876   12873      66
   12885   12882      65   12888   12882      65   12888   12885      66   12897
   12894      65   12900   12894      65   12900   12897      66   12909   12906
      65   12912   12906      65   12912   12909      66   12921   12918      65
   12924   12918      65   12924   12921      66   12933   12930      65   12936
   12930      65   12936   12933      66   12945   12942      65   12948   12942
      65   12948   12945      66   12957   12954      65   12960   12954      65
   12960   12957      66   12969   12966      65   12972   12966      65   12972
   12969      66   12981   12978      65   12984   12978      65   12984   12981
      66   12993   12990      65   12996   12990      65   12996   12993      66
   13005   13002      65   13008   13002      65   13008   13005      66   13017
   13014      65   13020   13014      65   13020   13017      66   13029   13026
      65   13032   13026      65   13032   13029      66   13041   13038      65
   13044   13038      65   13044   13041      66   13053   13050      65   13056
   13050      65   13056   13053      66   13065   13062      65   13068   13062
      65   13068   13065      66   13077   13074      65   13080   13074      65
   13080   13077      66   13089   13086      65   13092   13086      65   13092
   13089      66   13101   13098      65   13104   13098      65   13104   13101
      66   13113   13110      65   13116   13110      65   13116   13113      66
   13125   13122      65   13128   13122      65   13128   13125      66   13137
   13134      65   13140   13134      65   13140   13137      66   13149   13146
      65   13152   13146      65   13152   13149      66   13161   13158      65
   13164   13158      65   13164   13161      66   13173   13170      65   13176
   13170      65   13176   13173      66   13185   13182      65   13188   13182
      65   13188   13185      66   13197   13194      65   13200   13194      65
   13200   13197      66   13209   13206      65   13212   13206      65   13212
   13209      66   13221   13218      65   13224   13218      65   13224   13221
      66   13233   13230      65   13236   13230      65   13236   13233      66
   13245   13242      65   13248   13242      65   13248   13245      66   13257
   13254      65   13260   13254      65   13260   13257      66   13269   13266
      65   13272   13266      65   13272   13269      66   13281   13278      65
   13284   13278      65   13284   13281      66   13293   13290      65   13296
   13290      65   13296   13293      66   13305   13302      65   13308   13302
      65   13308   13305      66   13317   13314      65   13320   13314      65
   13320   13317      66   13329   13326      65   13332   13326      65   13332
   13329      66   13341   13338      65   13344   13338      65   13344   13341
      66   13353   13350      65   13356   13350      65   13356   13353      66
   13365   13362      65   13368   13362      65   13368   13365      66   13377
   13374      65   13380   13374      65   13380   13377      66   13389   13386
      65   13392   13386      65   13392   13389      66   13401   13398      65
   13404   13398      65   13404   13401      66   13413   13410      65   13416
   13410      65   13416   13413      66   13425   13422      65   13428   13422
      65   13428   13425      66   13437   13434      65   13440   13434      65
   13440   13437      66   13449   13446      65   13452   13446      65   13452
   13449      66   13461   13458      65   13464   13458      65   13464   13461
      66   13473   13470      65   13476   13470      65   13476   13473      66
   13485   13482      65   13488   13482      65   13488   13485      66   13497
   13494      65   13500   13494      65   13500   13497      66   13509   13506
      65   13512   13506      65   13512   13509      66   13521   13518      65
   13524   13518      65   13524   13521      66   13533   13530      65   13536
   13530      65   13536   13533      66   13545   13542      65   13548   13542
      65   13548   13545      66   13557   13554      65   13560   13554      65
   13560   13557      66   13569   13566      65   13572   13566      65   13572
   13569      66   13581   13578      65   13584   13578      65   13584   13581
      66   13593   13590      65   13596   13590      65   13596   13593      66
   13605   13602      65   13608   13602      65   13608   13605      66   13617
   13614      65   13620   13614      65   13620   13617      66   13629   13626
      65   13632   13626      65   13632   13629      66   13641   13638      65
   13644   13638      65   13644   13641      66   13653   13650      65   13656
   13650      65   13656   13653      66   13665   13662      65   13668   13662
      65   13668   13665      66   13677   13674      65   13680   13674      65
   13680   13677      66   13689   13686      65   13692   13686      65   13692
   13689      66   13701   13698      65   13704   13698      65   13704   13701
      66   13713   13710      65   13716   13710      65   13716   13713      66
   13725   13722      65   13728   13722      65   13728   13725      66   13737
   13734      65   13740   13734      65   13740   13737      66   13749   13746
      65   13752   13746      65   13752   13749      66   13761   13758      65
   13764   13758      65   13764   13761      66   13773   13770      65   13776
   13770      65   13776   13773      66   13785   13782      65   13788   13782
      65   13788   13785      66   13797   13794      65   13800   13794      65
   13800   13797      66   13809   13806      65   13812   13806      65   13812
   13809      66   13821   13818      65   13824   13818      65   13824   13821
      66   13833   13830      65   13836   13830      65   13836   13833      66
   13845   13842      65   13848   13842      65   13848   13845      66   13857
   13854      65   13860   13854      65   13860   13857      66   13869   13866
      65   13872   13866      65   13872   13869      66   13881   13878      65
   13884   13878      65   13884   13881      66   13893   13890      65   13896
   13890      65   13896   13893      66   13905   13902      65   13908   13902
      65   13908   13905      66   13917   13914      65   13920   13914      65
   13920   13917      66   13929   13926      65   13932   13926      65   13932
   13929      66   13941   13938      65   13944   13938      65   13944   13941
      66   13953   13950      65   13956   13950      65   13956   13953      66
   13965   13962      65   13968   13962      65   13968   13965      66   13977
   13974      65   13980   13974      65   13980   13977      66   13989   13986
      65   13992   13986      65   13992   13989      66   14001   13998      65
   14004   13998      65   14004   14001      66   14013   14010      65   14016
   14010      65   14016   14013      66   14025   14022      65   14028   14022
      65   14028   14025      66   14037   14034      65   14040   14034      65
   14040   14037      66   14049   14046      65   14052   14046      65   14052
   14049      66   14061   14058      65   14064   14058      65   14064   14061
      66   14073   14070      65   14076   14070      65   14076   14073      66
   14085   14082      65   14088   14082      65   14088   14085      66   14097
   14094      65   14100   14094      65   14100   14097      66   14109   14106
      65   14112   14106      65   14112   14109      66   14121   14118      65
   14124   14118      65   14124   14121      66   14133   14130      65   14136
   14130      65   14136   14133      66   14145   14142      65   14148   14142
      65   14148   14145      66   14157   14154      65   14160   14154      65
   14160   14157      66   14169   14166      65   14172   14166      65   14172
   14169      66   14181   14178      65   14184   14178      65   14184   14181
      66   14193   14190      65   14196   14190      65   14196   14193      66
   14205   14202      65   14208   14202      65   14208   14205      66   14217
   14214      65   14220   14214      65   14220   14217      66   14229   14226
      65   14232   14226      65   14232   14229      66   14241   14238      65
   14244   14238      65   14244   14241      66   14253   14250      65   14256
   14250      65   14256   14253      66   14265   14262      65   14268   14262
      65   14268   14265      66   14277   14274      65   14280   14274      65
   14280   14277      66   14289   14286      65   14292   14286      65   14292
   14289      66   14301   14298      65   14304   14298      65   14304   14301
      66   14313   14310      65   14316   14310      65   14316   14313      66
   14325   14322      65   14328   14322      65   14328   14325      66   14337
   14334      65   14340   14334      65   14340   14337      66   14349   14346
      65   14352   14346      65   14352   14349      66   14361   14358      65
   14364   14358      65   14364   14361      66   14373   14370      65   14376
   14370      65   14376   14373      66   14385   14382      65   14388   14382
      65   14388   14385      66   14397   14394      65   14400   14394      65
   14400   14397      66   14409   14406      65   14412   14406      65   14412
   14409      66   14421   14418      65   14424   14418      65   14424   14421
      66   14433   14430      65   14436   14430      65   14436   14433      66
   14445   14442      65   14448   14442      65   14448   14445      66   14457
   14454      65   14460   14454      65   14460   14457      66   14469   14466
      65   14472   14466      65   14472   14469      66   14481   14478      65
   14484   14478      65   14484   14481      66   14493   14490      65   14496
   14490      65   14496   14493      66   14505   14502      65   14508   14502
      65   14508   14505      66   14517   14514      65   14520   14514      65
   14520   14517      66   14529   14526      65   14532   14526      65   14532
   14529      66   14541   14538      65   14544   14538      65   14544   14541
      66   14553   14550      65   14556   14550      65   14556   14553      66
   14565   14562      65   14568   14562      65   14568   14565      66   14577
   14574      65   14580   14574      65   14580   14577      66   14589   14586
      65   14592   14586      65   14592   14589      66   14601   14598      65
   14604   14598      65   14604   14601      66   14613   14610      65   14616
   14610      65   14616   14613      66   14625   14622      65   14628   14622
      65   14628   14625      66   14637   14634      65   14640   14634      65
   14640   14637      66   14649   14646      65   14652   14646      65   14652
   14649      66   14661   14658      65   14664   14658      65   14664   14661
      66   14673   14670      65   14676   14670      65   14676   14673      66
   14685   14682      65   14688   14682      65   14688   14685      66   14697
   14694      65   14700   14694      65   14700   14697      66   14709   14706
      65   14712   14706      65   14712   14709      66   14721   14718      65
   14724   14718      65   14724   14721      66   14733   14730      65   14736
   14730      65   14736   14733      66   14745   14742      65   14748   14742
      65   14748   14745      66   14757   14754      65   14760   14754      65
   14760   14757      66   14769   14766      65   14772   14766      65   14772
   14769      66   14781   14778      65   14784   14778      65   14784   14781
      66   14793   14790      65   14796   14790      65   14796   14793      66
   14805   14802      65   14808   14802      65   14808   14805      66   14817
   14814      65   14820   14814      65   14820   14817      66   14829   14826
      65   14832   14826      65   14832   14829      66   14841   14838      65
   14844   14838      65   14844   14841      66   14853   14850      65   14856
   14850      65   14856   14853      66   14865   14862      65   14868   14862
      65   14868   14865      66   14877   14874      65   14880   14874      65
   14880   14877      66   14889   14886      65   14892   14886      65   14892
   14889      66   14901   14898      65   14904   14898      65   14904   14901
      66   14913   14910      65   14916   14910      65   14916   14913      66
   14925   14922      65   14928   14922      65   14928   14925      66   14937
   14934      65   14940   14934      65   14940   14937      66   14949   14946
      65   14952   14946      65   14952   14949      66   14961   14958      65
   14964   14958      65   14964   14961      66   14973   14970      65   14976
   14970      65   14976   14973      66   14985   14982      65   14988   14982
      65   14988   14985      66   14997   14994      65   15000   14994      65
   15000   14997      66   15009   15006      65   15012   15006      65   15012
   15009      66   15021   15018      65   15024   15018      65   15024   15021
      66   15033   15030      65   15036   15030      65   15036   15033      66
   15045   15042      65   15048   15042      65   15048   15045      66   15057
   15054      65   15060   15054      65   15060   15057      66   15069   15066
      65   15072   15066      65   15072   15069      66   15081   15078      65
   15084   15078      65   15084   15081      66   15093   15090      65   15096
   15090      65   15096   15093      66   15105   15102      65   15108   15102
      65   15108   15105      66   15117   15114      65   15120   15114      65
   15120   15117      66   15129   15126      65   15132   15126      65   15132
   15129      66   15141   15138      65   15144   15138      65   15144   15141
      66   15153   15150      65   15156   15150      65   15156   15153      66
   15165   15162      65   15168   15162      65   15168   15165      66   15177
   15174      65   15180   15174      65   15180   15177      66   15189   15186
      65   15192   15186      65   15192   15189      66   15201   15198      65
   15204   15198      65   15204   15201      66   15213   15210      65   15216
   15210      65   15216   15213      66   15225   15222      65   15228   15222
      65   15228   15225      66   15237   15234      65   15240   15234      65
   15240   15237      66   15249   15246      65   15252   15246      65   15252
   15249      66   15261   15258      65   15264   15258      65   15264   15261
      66   15273   15270      65   15276   15270      65   15276   15273      66
   15285   15282      65   15288   15282      65   15288   15285      66   15297
   15294      65   15300   15294      65   15300   15297      66   15309   15306
      65   15312   15306      65   15312   15309      66   15321   15318      65
   15324   15318      65   15324   15321      66   15333   15330      65   15336
   15330      65   15336   15333      66   15345   15342      65   15348   15342
      65   15348   15345      66   15357   15354      65   15360   15354      65
   15360   15357      66   15369   15366      65   15372   15366      65   15372
   15369      66   15381   15378      65   15384   15378      65   15384   15381
      66   15393   15390      65   15396   15390      65   15396   15393      66
   15405   15402      65   15408   15402      65   15408   15405      66   15417
   15414      65   15420   15414      65   15420   15417      66   15429   15426
      65   15432   15426      65   15432   15429      66   15441   15438      65
   15444   15438      65   15444   15441      66   15453   15450      65   15456
   15450      65   15456   15453      66   15465   15462      65   15468   15462
      65   15468   15465      66   15477   15474      65   15480   15474      65
   15480   15477      66   15489   15486      65   15492   15486      65   15492
   15489      66   15501   15498      65   15504   15498      65   15504   15501
      66   15513   15510      65   15516   15510      65   15516   15513      66
   15525   15522      65   15528   15522      65   15528   15525      66   15537
   15534      65   15540   15534      65   15540   15537      66   15549   15546
      65   15552   15546      65   15552   15549      66   15561   15558      65
   15564   15558      65   15564   15561      66   15573   15570      65   15576
   15570      65   15576   15573      66   15585   15582      65   15588   15582
      65   15588   15585      66   15597   15594      65   15600   15594      65
   15600   15597      66   15609   15606      65   15612   15606      65   15612
   15609      66   15621   15618      65   15624   15618      65   15624   15621
      66   15633   15630      65   15636   15630      65   15636   15633      66
   15645   15642      65   15648   15642      65   15648   15645      66   15657
   15654      65   15660   15654      65   15660   15657      66   15669   15666
      65   15672   15666      65   15672   15669      66   15681   15678      65
   15684   15678      65   15684   15681      66   15693   15690      65   15696
   15690      65   15696   15693      66   15705   15702      65   15708   15702
      65   15708   15705      66   15717   15714      65   15720   15714      65
   15720   15717      66   15729   15726      65   15732   15726      65   15732
   15729      66   15741   15738      65   15744   15738      65   15744   15741
      66   15753   15750      65   15756   15750      65   15756   15753      66
   15765   15762      65   15768   15762      65   15768   15765      66   15777
   15774      65   15780   15774      65   15780   15777      66   15789   15786
      65   15792   15786      65   15792   15789      66   15801   15798      65
   15804   15798      65   15804   15801      66   15813   15810      65   15816
   15810      65   15816   15813      66   15825   15822      65   15828   15822
      65   15828   15825      66   15837   15834      65   15840   15834      65
   15840   15837      66   15849   15846      65   15852   15846      65   15852
   15849      66   15861   15858      65   15864   15858      65   15864   15861
      66   15873   15870      65   15876   15870      65   15876   15873      66
   15885   15882      65   15888   15882      65   15888   15885      66   15897
   15894      65   15900   15894      65   15900   15897      66   15909   15906
      65   15912   15906      65   15912   15909      66   15921   15918      65
   15924   15918      65   15924   15921      66   15933   15930      65   15936
   15930      65   15936   15933      66   15945   15942      65   15948   15942
      65   15948   15945      66   15957   15954      65   15960   15954      65
   15960   15957      66   15969   15966      65   15972   15966      65   15972
   15969      66   15981   15978      65   15984   15978      65   15984   15981
      66   15993   15990      65   15996   15990      65   15996   15993      66
   16005   16002      65   16008   16002      65   16008   16005      66   16017
   16014      65   16020   16014      65   16020   16017      66   16029   16026
      65   16032   16026      65   16032   16029      66   16041   16038      65
   16044   16038      65   16044   16041      66   16053   16050      65   16056
   16050      65   16056   16053      66   16065   16062      65   16068   16062
      65   16068   16065      66   16077   16074      65   16080   16074      65
   16080   16077      66   16089   16086      65   16092   16086      65   16092
   16089      66   16101   16098      65   16104   16098      65   16104   16101
      66   16113   16110      65   16116   16110      65   16116   16113      66
   16125   16122      65   16128   16122      65   16128   16125      66   16137
   16134      65   16140   16134      65   16140   16137      66   16149   16146
      65   16152   16146      65   16152   16149      66   16161   16158      65
   16164   16158      65   16164   16161      66   16173   16170      65   16176
   16170      65   16176   16173      66   16185   16182      65   16188   16182
      65   16188   16185      66   16197   16194      65   16200   16194      65
   16200   16197      66   16209   16206      65   16212   16206      65   16212
   16209      66   16221   16218      65   16224   16218      65   16224   16221
      66   16233   16230      65   16236   16230      65   16236   16233      66
   16245   16242      65   16248   16242      65   16248   16245      66   16257
   16254      65   16260   16254      65   16260   16257      66   16269   16266
      65   16272   16266      65   16272   16269      66   16281   16278      65
   16284   16278      65   16284   16281      66   16293   16290      65   16296
   16290      65   16296   16293      66   16305   16302      65   16308   16302
      65   16308   16305      66   16317   16314      65   16320   16314      65
   16320   16317      66   16329   16326      65   16332   16326      65   16332
   16329      66   16341   16338      65   16344   16338      65   16344   16341
      66   16353   16350      65   16356   16350      65   16356   16353      66
   16365   16362      65   16368   16362      65   16368   16365      66   16377
   16374      65   16380   16374      65   16380   16377      66   16389   16386
      65   16392   16386      65   16392   16389      66   16401   16398      65
   16404   16398      65   16404   16401      66   16413   16410      65   16416
   16410      65   16416   16413      66   16425   16422      65   16428   16422
      65   16428   16425      66   16437   16434      65   16440   16434      65
   16440   16437      66   16449   16446      65   16452   16446      65   16452
   16449      66   16461   16458      65   16464   16458      65   16464   16461
      66   16473   16470      65   16476   16470      65   16476   16473      66
   16485   16482      65   16488   16482      65   16488   16485      66   16497
   16494      65   16500   16494      65   16500   16497      66   16509   16506
      65   16512   16506      65   16512   16509      66   16521   16518      65
   16524   16518      65   16524   16521      66   16533   16530      65   16536
   16530      65   16536   16533      66   16545   16542      65   16548   16542
      65   16548   16545      66   16557   16554      65   16560   16554      65
   16560   16557      66   16569   16566      65   16572   16566      65   16572
   16569      66   16581   16578      65   16584   16578      65   16584   16581
      66   16593   16590      65   16596   16590      65   16596   16593      66
   16605   16602      65   16608   16602      65   16608   16605      66   16617
   16614      65   16620   16614      65   16620   16617      66   16629   16626
      65   16632   16626      65   16632   16629      66   16641   16638      65
   16644   16638      65   16644   16641      66   16653   16650      65   16656
   16650      65   16656   16653      66   16665   16662      65   16668   16662
      65   16668   16665      66   16677   16674      65   16680   16674      65
   16680   16677      66   16689   16686      65   16692   16686      65   16692
   16689      66   16701   16698      65   16704   16698      65   16704   16701
      66   16713   16710      65   16716   16710      65   16716   16713      66
   16725   16722      65   16728   16722      65   16728   16725      66   16737
   16734      65   16740   16734      65   16740   16737      66   16749   16746
      65   16752   16746      65   16752   16749      66   16761   16758      65
   16764   16758      65   16764   16761      66   16773   16770      65   16776
   16770      65   16776   16773      66   16785   16782      65   16788   16782
      65   16788   16785      66   16797   16794      65   16800   16794      65
   16800   16797      66   16809   16806      65   16812   16806      65   16812
   16809      66   16821   16818      65   16824   16818      65   16824   16821
      66   16833   16830      65   16836   16830      65   16836   16833      66
   16845   16842      65   16848   16842      65   16848   16845      66   16857
   16854      65   16860   16854      65   16860   16857      66   16869   16866
      65   16872   16866      65   16872   16869      66   16881   16878      65
   16884   16878      65   16884   16881      66   16893   16890      65   16896
   16890      65   16896   16893      66   16905   16902      65   16908   16902
      65   16908   16905      66   16917   16914      65   16920   16914      65
   16920   16917      66   16929   16926      65   16932   16926      65   16932
   16929      66   16941   16938      65   16944   16938      65   16944   16941
      66   16953   16950      65   16956   16950      65   16956   16953      66
   16965   16962      65   16968   16962      65   16968   16965      66   16977
   16974      65   16980   16974      65   16980   16977      66   16989   16986
      65   16992   16986      65   16992   16989      66   17001   16998      65
   17004   16998      65   17004   17001      66   17013   17010      65   17016
   17010      65   17016   17013      66   17025   17022      65   17028   17022
      65   17028   17025      66   17037   17034      65   17040   17034      65
   17040   17037      66   17049   17046      65   17052   17046      65   17052
   17049      66   17061   17058      65   17064   17058      65   17064   17061
      66   17073   17070      65   17076   17070      65   17076   17073      66
   17085   17082      65   17088   17082      65   17088   17085      66   17097
   17094      65   17100   17094      65   17100   17097      66   17109   17106
      65   17112   17106      65   17112   17109      66   17121   17118      65
   17124   17118      65   17124   17121      66   17133   17130      65   17136
   17130      65   17136   17133      66   17145   17142      65   17148   17142
      65   17148   17145      66   17157   17154      65   17160   17154      65
   17160   17157      66   17169   17166      65   17172   17166      65   17172
   17169      66   17181   17178      65   17184   17178      65   17184   17181
      66   17193   17190      65   17196   17190      65   17196   17193      66
   17205   17202      65   17208   17202      65   17208   17205      66   17217
   17214      65   17220   17214      65   17220   17217      66   17229   17226
      65   17232   17226      65   17232   17229      66   17241   17238      65
   17244   17238      65   17244   17241      66   17253   17250      65   17256
   17250      65   17256   17253      66   17265   17262      65   17268   17262
      65   17268   17265      66   17277   17274      65   17280   17274      65
   17280   17277      66   17289   17286      65   17292   17286      65   17292
   17289      66   17301   17298      65   17304   17298      65   17304   17301
      66   17313   17310      65   17316   17310      65   17316   17313      66
   17325   17322      65   17328   17322      65   17328   17325      66   17337
   17334      65   17340   17334      65   17340   17337      66   17349   17346
      65   17352   17346      65   17352   17349      66   17361   17358      65
   17364   17358      65   17364   17361      66   17373   17370      65   17376
   17370      65   17376   17373      66   17385   17382      65   17388   17382
      65   17388   17385      66   17397   17394      65   17400   17394      65
   17400   17397      66   17409   17406      65   17412   17406      65   17412
   17409      66   17421   17418      65   17424   17418      65   17424   17421
      66   17433   17430      65   17436   17430      65   17436   17433      66
   17445   17442      65   17448   17442      65   17448   17445      66   17457
   17454      65   17460   17454      65   17460   17457      66   17469   17466
      65   17472   17466      65   17472   17469      66   17481   17478      65
   17484   17478      65   17484   17481      66   17493   17490      65   17496
   17490      65   17496   17493      66   17505   17502      65   17508   17502
      65   17508   17505      66   17517   17514      65   17520   17514      65
   17520   17517      66   17529   17526      65   17532   17526      65   17532
   17529      66   17541   17538      65   17544   17538      65   17544   17541
      66   17553   17550      65   17556   17550      65   17556   17553      66
   17565   17562      65   17568   17562      65   17568   17565      66   17577
   17574      65   17580   17574      65   17580   17577      66   17589   17586
      65   17592   17586      65   17592   17589      66   17601   17598      65
   17604   17598      65   17604   17601      66   17613   17610      65   17616
   17610      65   17616   17613      66   17625   17622      65   17628   17622
      65   17628   17625      66   17637   17634      65   17640   17634      65
   17640   17637      66   17649   17646      65   17652   17646      65   17652
   17649      66   17661   17658      65   17664   17658      65   17664   17661
      66   17673   17670      65   17676   17670      65   17676   17673      66
   17685   17682      65   17688   17682      65   17688   17685      66   17697
   17694      65   17700   17694      65   17700   17697      66   17709   17706
      65   17712   17706      65   17712   17709      66   17721   17718      65
   17724   17718      65   17724   17721      66   17733   17730      65   17736
   17730      65   17736   17733      66   17745   17742      65   17748   17742
      65   17748   17745      66   17757   17754      65   17760   17754      65
   17760   17757      66   17769   17766      65   17772   17766      65   17772
   17769      66   17781   17778      65   17784   17778      65   17784   17781
      66   17793   17790      65   17796   17790      65   17796   17793      66
   17805   17802      65   17808   17802      65   17808   17805      66   17817
   17814      65   17820   17814      65   17820   17817      66   17829   17826
      65   17832   17826      65   17832   17829      66   17841   17838      65
   17844   17838      65   17844   17841      66   17853   17850      65   17856
   17850      65   17856   17853      66   17865   17862      65   17868   17862
      65   17868   17865      66   17877   17874      65   17880   17874      65
   17880   17877      66   17889   17886      65   17892   17886      65   17892
   17889      66   17901   17898      65   17904   17898      65   17904   17901
      66   17913   17910      65   17916   17910      65   17916   17913      66
   17925   17922      65   17928   17922      65   17928   17925      66   17937
   17934      65   17940   17934      65   17940   17937      66   17949   17946
      65   17952   17946      65   17952   17949      66   17961   17958      65
   17964   17958      65   17964   17961      66   17973   17970      65   17976
   17970      65   17976   17973      66   17985   17982      65   17988   17982
      65   17988   17985      66   17997   17994      65   18000   17994      65
   18000   17997      66   18009   18006      65   18012   18006      65   18012
   18009      66   18021   18018      65   18024   18018      65   18024   18021
      66   18033   18030      65   18036   18030      65   18036   18033      66
   18045   18042      65   18048   18042      65   18048   18045      66   18057
   18054      65   18060   18054      65   18060   18057      66   18069   18066
      65   18072   18066      65   18072   18069      66   18081   18078      65
   18084   18078      65   18084   18081      66   18093   18090      65   18096
   18090      65   18096   18093      66   18105   18102      65   18108   18102
      65   18108   18105      66   18117   18114      65   18120   18114      65
   18120   18117      66   18129   18126      65   18132   18126      65   18132
   18129      66   18141   18138      65   18144   18138      65   18144   18141
      66   18153   18150      65   18156   18150      65   18156   18153      66
   18165   18162      65   18168   18162      65   18168   18165      66   18177
   18174      65   18180   18174      65   18180   18177      66   18189   18186
      65   18192   18186      65   18192   18189      66   18201   18198      65
   18204   18198      65   18204   18201      66   18213   18210      65   18216
   18210      65   18216   18213      66   18225   18222      65   18228   18222
      65   18228   18225      66   18237   18234      65   18240   18234      65
   18240   18237      66   18249   18246      65   18252   18246      65   18252
   18249      66   18261   18258      65   18264   18258      65   18264   18261
      66   18273   18270      65   18276   18270      65   18276   18273      66
   18285   18282      65   18288   18282      65   18288   18285      66   18297
   18294      65   18300   18294      65   18300   18297      66   18309   18306
      65   18312   18306      65   18312   18309      66   18321   18318      65
   18324   18318      65   18324   18321      66   18333   18330      65   18336
   18330      65   18336   18333      66   18345   18342      65   18348   18342
      65   18348   18345      66   18357   18354      65   18360   18354      65
   18360   18357      66   18369   18366      65   18372   18366      65   18372
   18369      66   18381   18378      65   18384   18378      65   18384   18381
      66   18393   18390      65   18396   18390      65   18396   18393      66
   18405   18402      65   18408   18402      65   18408   18405      66   18417
   18414      65   18420   18414      65   18420   18417      66   18429   18426
      65   18432   18426      65   18432   18429      66   18441   18438      65
   18444   18438      65   18444   18441      66   18453   18450      65   18456
   18450      65   18456   18453      66   18465   18462      65   18468   18462
      65   18468   18465      66   18477   18474      65   18480   18474      65
   18480   18477      66   18489   18486      65   18492   18486      65   18492
   18489      66   18501   18498      65   18504   18498      65   18504   18501
      66   18513   18510      65   18516   18510      65   18516   18513      66
   18525   18522      65   18528   18522      65   18528   18525      66   18537
   18534      65   18540   18534      65   18540   18537      66   18549   18546
      65   18552   18546      65   18552   18549      66   18561   18558      65
   18564   18558      65   18564   18561      66   18573   18570      65   18576
   18570      65   18576   18573      66   18585   18582      65   18588   18582
      65   18588   18585      66   18597   18594      65   18600   18594      65
   18600   18597      66   18609   18606      65   18612   18606      65   18612
   18609      66   18621   18618      65   18624   18618      65   18624   18621
      66   18633   18630      65   18636   18630      65   18636   18633      66
   18645   18642      65   18648   18642      65   18648   18645      66   18657
   18654      65   18660   18654      65   18660   18657      66   18669   18666
      65   18672   18666      65   18672   18669      66   18681   18678      65
   18684   18678      65   18684   18681      66   18693   18690      65   18696
   18690      65   18696   18693      66   18705   18702      65   18708   18702
      65   18708   18705      66   18717   18714      65   18720   18714      65
   18720   18717      66   18729   18726      65   18732   18726      65   18732
   18729      66   18741   18738      65   18744   18738      65   18744   18741
      66   18753   18750      65   18756   18750      65   18756   18753      66
   18765   18762      65   18768   18762      65   18768   18765      66   18777
   18774      65   18780   18774      65   18780   18777      66   18789   18786
      65   18792   18786      65   18792   18789      66   18801   18798      65
   18804   18798      65   18804   18801      66   18813   18810      65   18816
   18810      65   18816   18813      66   18825   18822      65   18828   18822
      65   18828   18825      66   18837   18834      65   18840   18834      65
   18840   18837      66   18849   18846      65   18852   18846      65   18852
   18849      66   18861   18858      65   18864   18858      65   18864   18861
      66   18873   18870      65   18876   18870      65   18876   18873      66
   18885   18882      65   18888   18882      65   18888   18885      66   18897
   18894      65   18900   18894      65   18900   18897      66   18909   18906
      65   18912   18906      65   18912   18909      66   18921   18918      65
   18924   18918      65   18924   18921      66   18933   18930      65   18936
   18930      65   18936   18933      66   18945   18942      65   18948   18942
      65   18948   18945      66   18957   18954      65   18960   18954      65
   18960   18957      66   18969   18966      65   18972   18966      65   18972
   18969      66   18981   18978      65   18984   18978      65   18984   18981
      66   18993   18990      65   18996   18990      65   18996   18993      66
   19005   19002      65   19008   19002      65   19008   19005      66   19017
   19014      65   19020   19014      65   19020   19017      66   19029   19026
      65   19032   19026      65   19032   19029      66   19041   19038      65
   19044   19038      65   19044   19041      66   19053   19050      65   19056
   19050      65   19056   19053      66   19065   19062      65   19068   19062
      65   19068   19065      66   19077   19074      65   19080   19074      65
   19080   19077      66   19089   19086      65   19092   19086      65   19092
   19089      66   19101   19098      65   19104   19098      65   19104   19101
      66   19113   19110      65   19116   19110      65   19116   19113      66
   19125   19122      65   19128   19122      65   19128   19125      66   19137
   19134      65   19140   19134      65   19140   19137      66   19149   19146
      65   19152   19146      65   19152   19149      66   19161   19158      65
   19164   19158      65   19164   19161      66   19173   19170      65   19176
   19170      65   19176   19173      66   19185   19182      65   19188   19182
      65   19188   19185      66   19197   19194      65   19200   19194      65
   19200   19197      66   19209   19206      65   19212   19206      65   19212
   19209      66   19221   19218      65   19224   19218      65   19224   19221
      66   19233   19230      65   19236   19230      65   19236   19233      66
   19245   19242      65   19248   19242      65   19248   19245      66   19257
   19254      65   19260   19254      65   19260   19257      66   19269   19266
      65   19272   19266      65   19272   19269      66   19281   19278      65
   19284   19278      65   19284   19281      66   19293   19290      65   19296
   19290      65   19296   19293      66   19305   19302      65   19308   19302
      65   19308   19305      66   19317   19314      65   19320   19314      65
   19320   19317      66   19329   19326      65   19332   19326      65   19332
   19329      66   19341   19338      65   19344   19338      65   19344   19341
      66   19353   19350      65   19356   19350      65   19356   19353      66
   19365   19362      65   19368   19362      65   19368   19365      66   19377
   19374      65   19380   19374      65   19380   19377      66   19389   19386
      65   19392   19386      65   19392   19389      66   19401   19398      65
   19404   19398      65   19404   19401      66   19413   19410      65   19416
   19410      65   19416   19413      66   19425   19422      65   19428   19422
      65   19428   19425      66   19437   19434      65   19440   19434      65
   19440   19437      66   19449   19446      65   19452   19446      65   19452
   19449      66   19461   19458      65   19464   19458      65   19464   19461
      66   19473   19470      65   19476   19470      65   19476   19473      66
   19485   19482      65   19488   19482      65   19488   19485      66   19497
   19494      65   19500   19494      65   19500   19497      66   19509   19506
      65   19512   19506      65   19512   19509      66   19521   19518      65
   19524   19518      65   19524   19521      66   19533   19530      65   19536
   19530      65   19536   19533      66   19545   19542      65   19548   19542
      65   19548   19545      66   19557   19554      65   19560   19554      65
   19560   19557      66   19569   19566      65   19572   19566      65   19572
   19569      66   19581   19578      65   19584   19578      65   19584   19581
      66   19593   19590      65   19596   19590      65   19596   19593      66
   19605   19602      65   19608   19602      65   19608   19605      66   19617
   19614      65   19620   19614      65   19620   19617      66   19629   19626
      65   19632   19626      65   19632   19629      66   19641   19638      65
   19644   19638      65   19644   19641      66   19653   19650      65   19656
   19650      65   19656   19653      66   19665   19662      65   19668   19662
      65   19668   19665      66   19677   19674      65   19680   19674      65
   19680   19677      66   19689   19686      65   19692   19686      65   19692
   19689      66   19701   19698      65   19704   19698      65   19704   19701
      66   19713   19710      65   19716   19710      65   19716   19713      66
   19725   19722      65   19728   19722      65   19728   19725      66   19737
   19734      65   19740   19734      65   19740   19737      66   19749   19746
      65   19752   19746      65   19752   19749      66   19761   19758      65
   19764   19758      65   19764   19761      66   19773   19770      65   19776
   19770      65   19776   19773      66   19785   19782      65   19788   19782
      65   19788   19785      66   19797   19794      65   19800   19794      65
   19800   19797      66   19809   19806      65   19812   19806      65   19812
   19809      66   19821   19818      65   19824   19818      65   19824   19821
      66   19833   19830      65   19836   19830      65   19836   19833      66
   19845   19842      65   19848   19842      65   19848   19845      66   19857
   19854      65   19860   19854      65   19860   19857      66   19869   19866
      65   19872   19866      65   19872   19869      66   19881   19878      65
   19884   19878      65   19884   19881      66   19893   19890      65   19896
   19890      65   19896   19893      66   19905   19902      65   19908   19902
      65   19908   19905      66   19917   19914      65   19920   19914      65
   19920   19917      66   19929   19926      65   19932   19926      65   19932
   19929      66   19941   19938      65   19944   19938      65   19944   19941
      66   19953   19950      65   19956   19950      65   19956   19953      66
   19965   19962      65   19968   19962      65   19968   19965      66   19977
   19974      65   19980   19974      65   19980   19977      66   19989   19986
      65   19992   19986      65   19992   19989      66   20001   19998      65
   20004   19998      65   20004   20001      66   20013   20010      65   20016
   20010      65   20016   20013      66   20025   20022      65   20028   20022
      65   20028   20025      66   20037   20034      65   20040   20034      65
   20040   20037      66   20049   20046      65   20052   20046      65   20052
   20049      66   20061   20058      65   20064   20058      65   20064   20061
      66   20073   20070      65   20076   20070      65   20076   20073      66
   20085   20082      65   20088   20082      65   20088   20085      66   20097
   20094      65   20100   20094      65   20100   20097      66   20109   20106
      65   20112   20106      65   20112   20109      66   20121   20118      65
   20124   20118      65   20124   20121      66   20133   20130      65   20136
   20130      65   20136   20133      66   20145   20142      65   20148   20142
      65   20148   20145      66   20157   20154      65   20160   20154      65
   20160   20157      66   20169   20166      65   20172   20166      65   20172
   20169      66   20181   20178      65   20184   20178      65   20184   20181
      66   20193   20190      65   20196   20190      65   20196   20193      66
   20205   20202      65   20208   20202      65   20208   20205      66   20217
   20214      65   20220   20214      65   20220   20217      66   20229   20226
      65   20232   20226      65   20232   20229      66   20241   20238      65
   20244   20238      65   20244   20241      66   20253   20250      65   20256
   20250      65   20256   20253      66   20265   20262      65   20268   20262
      65   20268   20265      66   20277   20274      65   20280   20274      65
   20280   20277      66   20289   20286      65   20292   20286      65   20292
   20289      66   20301   20298      65   20304   20298      65   20304   20301
      66   20313   20310      65   20316   20310      65   20316   20313      66
   20325   20322      65   20328   20322      65   20328   20325      66   20337
   20334      65   20340   20334      65   20340   20337      66   20349   20346
      65   20352   20346      65   20352   20349      66   20361   20358      65
   20364   20358      65   20364   20361      66   20373   20370      65   20376
   20370      65   20376   20373      66   20385   20382      65   20388   20382
      65   20388   20385      66   20397   20394      65   20400   20394      65
   20400   20397      66   20409   20406      65   20412   20406      65   20412
   20409      66   20421   20418      65   20424   20418      65   20424   20421
      66   20433   20430      65   20436   20430      65   20436   20433      66
   20445   20442      65   20448   20442      65   20448   20445      66   20457
   20454      65   20460   20454      65   20460   20457      66   20469   20466
      65   20472   20466      65   20472   20469      66   20481   20478      65
   20484   20478      65   20484   20481      66   20493   20490      65   20496
   20490      65   20496   20493      66   20505   20502      65   20508   20502
      65   20508   20505      66   20517   20514      65   20520   20514      65
   20520   20517      66   20529   20526      65   20532   20526      65   20532
   20529      66   20541   20538      65   20544   20538      65   20544   20541
      66   20553   20550      65   20556   20550      65   20556   20553      66
   20565   20562      65   20568   20562      65   20568   20565      66   20577
   20574      65   20580   20574      65   20580   20577      66   20589   20586
      65   20592   20586      65   20592   20589      66   20601   20598      65
   20604   20598      65   20604   20601      66   20613   20610      65   20616
   20610      65   20616   20613      66   20625   20622      65   20628   20622
      65   20628   20625      66   20637   20634      65   20640   20634      65
   20640   20637      66   20649   20646      65   20652   20646      65   20652
   20649      66   20661   20658      65   20664   20658      65   20664   20661
      66   20673   20670      65   20676   20670      65   20676   20673      66
   20685   20682      65   20688   20682      65   20688   20685      66   20697
   20694      65   20700   20694      65   20700   20697      66   20709   20706
      65   20712   20706      65   20712   20709      66   20721   20718      65
   20724   20718      65   20724   20721      66   20733   20730      65   20736
   20730      65   20736   20733      66   20745   20742      65   20748   20742
      65   20748   20745      66   20757   20754      65   20760   20754      65
   20760   20757      66   20769   20766      65   20772   20766      65   20772
   20769      66   20781   20778      65   20784   20778      65   20784   20781
      66   20793   20790      65   20796   20790      65   20796   20793      66
   20805   20802      65   20808   20802      65   20808   20805      66   20817
   20814      65   20820   20814      65   20820   20817      66   20829   20826
      65   20832   20826      65   20832   20829      66   20841   20838      65
   20844   20838      65   20844   20841      66   20853   20850      65   20856
   20850      65   20856   20853      66   20865   20862      65   20868   20862
      65   20868   20865      66   20877   20874      65   20880   20874      65
   20880   20877      66   20889   20886      65   20892   20886      65   20892
   20889      66   20901   20898      65   20904   20898      65   20904   20901
      66   20913   20910      65   20916   20910      65   20916   20913      66
   20925   20922      65   20928   20922      65   20928   20925      66   20937
   20934      65   20940   20934      65   20940   20937      66   20949   20946
      65   20952   20946      65   20952   20949      66   20961   20958      65
   20964   20958      65   20964   20961      66   20973   20970      65   20976
   20970      65   20976   20973      66   20985   20982      65   20988   20982
      65   20988   20985      66   20997   20994      65   21000   20994      65
   21000   20997      66   21009   21006      65   21012   21006      65   21012
   21009      66   21021   21018      65   21024   21018      65   21024   21021
      66   21033   21030      65   21036   21030      65   21036   21033      66
   21045   21042      65   21048   21042      65   21048   21045      66   21057
   21054      65   21060   21054      65   21060   21057      66   21069   21066
      65   21072   21066      65   21072   21069      66   21081   21078      65
   21084   21078      65   21084   21081      66   21093   21090      65   21096
   21090      65   21096   21093      66   21105   21102      65   21108   21102
      65   21108   21105      66   21117   21114      65   21120   21114      65
   21120   21117      66   21129   21126      65   21132   21126      65   21132
   21129      66   21141   21138      65   21144   21138      65   21144   21141
      66   21153   21150      65   21156   21150      65   21156   21153      66
   21165   21162      65   21168   21162      65   21168   21165      66   21177
   21174      65   21180   21174      65   21180   21177      66   21189   21186
      65   21192   21186      65   21192   21189      66   21201   21198      65
   21204   21198      65   21204   21201      66   21213   21210      65   21216
   21210      65   21216   21213      66   21225   21222      65   21228   21222
      65   21228   21225      66   21237   21234      65   21240   21234      65
   21240   21237      66   21249   21246      65   21252   21246      65   21252
   21249      66   21261   21258      65   21264   21258      65   21264   21261
      66   21273   21270      65   21276   21270      65   21276   21273      66
   21285   21282      65   21288   21282      65   21288   21285      66   21297
   21294      65   21300   21294      65   21300   21297      66   21309   21306
      65   21312   21306      65   21312   21309      66   21321   21318      65
   21324   21318      65   21324   21321      66   21333   21330      65   21336
   21330      65   21336   21333      66   21345   21342      65   21348   21342
      65   21348   21345      66   21357   21354      65   21360   21354      65
   21360   21357      66   21369   21366      65   21372   21366      65   21372
   21369      66   21381   21378      65   21384   21378      65   21384   21381
      66   21393   21390      65   21396   21390      65   21396   21393      66
   21405   21402      65   21408   21402      65   21408   21405      66   21417
   21414      65   21420   21414      65   21420   21417      66   21429   21426
      65   21432   21426      65   21432   21429      66   21441   21438      65
   21444   21438      65   21444   21441      66   21453   21450      65   21456
   21450      65   21456   21453      66   21465   21462      65   21468   21462
      65   21468   21465      66   21477   21474      65   21480   21474      65
   21480   21477      66   21489   21486      65   21492   21486      65   21492
   21489      66   21501   21498      65   21504   21498      65   21504   21501
      66   21513   21510      65   21516   21510      65   21516   21513      66
   21525   21522      65   21528   21522      65   21528   21525      66   21537
   21534      65   21540   21534      65   21540   21537      66   21549   21546
      65   21552   21546      65   21552   21549      66   21561   21558      65
   21564   21558      65   21564   21561      66   21573   21570      65   21576
   21570      65   21576   21573      66   21585   21582      65   21588   21582
      65   21588   21585      66   21597   21594      65   21600   21594      65
   21600   21597      66   21609   21606      65   21612   21606      65   21612
   21609      66   21621   21618      65   21624   21618      65   21624   21621
      66   21633   21630      65   21636   21630      65   21636   21633      66
   21645   21642      65   21648   21642      65   21648   21645      66   21657
   21654      65   21660   21654      65   21660   21657      66   21669   21666
      65   21672   21666      65   21672   21669      66   21681   21678      65
   21684   21678      65   21684   21681      66   21693   21690      65   21696
   21690      65   21696   21693      66   21705   21702      65   21708   21702
      65   21708   21705      66   21717   21714      65   21720   21714      65
   21720   21717      66   21729   21726      65   21732   21726      65   21732
   21729      66   21741   21738      65   21744   21738      65   21744   21741
      66   21753   21750      65   21756   21750      65   21756   21753      66
   21765   21762      65   21768   21762      65   21768   21765      66   21777
   21774      65   21780   21774      65   21780   21777      66   21789   21786
      65   21792   21786      65   21792   21789      66   21801   21798      65
   21804   21798      65   21804   21801      66   21813   21810      65   21816
   21810      65   21816   21813      66   21825   21822      65   21828   21822
      65   21828   21825      66   21837   21834      65   21840   21834      65
   21840   21837      66   21849   21846      65   21852   21846      65   21852
   21849      66   21861   21858      65   21864   21858      65   21864   21861
      66   21873   21870      65   21876   21870      65   21876   21873      66
   21885   21882      65   21888   21882      65   21888   21885      66   21897
   21894      65   21900   21894      65   21900   21897      66   21909   21906
      65   21912   21906      65   21912   21909      66   21921   21918      65
   21924   21918      65   21924   21921      66   21933   21930      65   21936
   21930      65   21936   21933      66   21945   21942      65   21948   21942
      65   21948   21945      66   21957   21954      65   21960   21954      65
   21960   21957      66   21969   21966      65   21972   21966      65   21972
   21969      66   21981   21978      65   21984   21978      65   21984   21981
      66   21993   21990      65   21996   21990      65   21996   21993      66
   22005   22002      65   22008   22002      65   22008   22005      66   22017
   22014      65   22020   22014      65   22020   22017      66   22029   22026
      65   22032   22026      65   22032   22029      66   22041   22038      65
   22044   22038      65   22044   22041      66   22053   22050      65   22056
   22050      65   22056   22053      66   22065   22062      65   22068   22062
      65   22068   22065      66   22077   22074      65   22080   22074      65
   22080   22077      66   22089   22086      65   22092   22086      65   22092
   22089      66   22101   22098      65   22104   22098      65   22104   22101
      66   22113   22110      65   22116   22110      65   22116   22113      66
   22125   22122      65   22128   22122      65   22128   22125      66   22137
   22134      65   22140   22134      65   22140   22137      66   22149   22146
      65   22152   22146      65   22152   22149      66   22161   22158      65
   22164   22158      65   22164   22161      66   22173   22170      65   22176
   22170      65   22176   22173      66   22185   22182      65   22188   22182
      65   22188   22185      66   22197   22194      65   22200   22194      65
   22200   22197      66   22209   22206      65   22212   22206      65   22212
   22209      66   22221   22218      65   22224   22218      65   22224   22221
      66   22233   22230      65   22236   22230      65   22236   22233      66
   22245   22242      65   22248   22242      65   22248   22245      66   22257
   22254      65   22260   22254      65   22260   22257      66   22269   22266
      65   22272   22266      65   22272   22269      66   22281   22278      65
   22284   22278      65   22284   22281      66   22293   22290      65   22296
   22290      65   22296   22293      66   22305   22302      65   22308   22302
      65   22308   22305      66   22317   22314      65   22320   22314      65
   22320   22317      66   22329   22326      65   22332   22326      65   22332
   22329      66   22341   22338      65   22344   22338      65   22344   22341
      66   22353   22350      65   22356   22350      65   22356   22353      66
   22365   22362      65   22368   22362      65   22368   22365      66   22377
   22374      65   22380   22374      65   22380   22377      66   22389   22386
      65   22392   22386      65   22392   22389      66   22401   22398      65
   22404   22398      65   22404   22401      66   22413   22410      65   22416
   22410      65   22416   22413      66   22425   22422      65   22428   22422
      65   22428   22425      66   22437   22434      65   22440   22434      65
   22440   22437      66   22449   22446      65   22452   22446      65   22452
   22449      66   22461   22458      65   22464   22458      65   22464   22461
      66   22473   22470      65   22476   22470      65   22476   22473      66
   22485   22482      65   22488   22482      65   22488   22485      66   22497
   22494      65   22500   22494      65   22500   22497      66   22509   22506
      65   22512   22506      65   22512   22509      66   22521   22518      65
   22524   22518      65   22524   22521      66   22533   22530      65   22536
   22530      65   22536   22533      66   22545   22542      65   22548   22542
      65   22548   22545      66   22557   22554      65   22560   22554      65
   22560   22557      66   22569   22566      65   22572   22566      65   22572
   22569      66   22581   22578      65   22584   22578      65   22584   22581
      66   22593   22590      65   22596   22590      65   22596   22593      66
   22605   22602      65   22608   22602      65   22608   22605      66   22617
   22614      65   22620   22614      65   22620   22617      66   22629   22626
      65   22632   22626      65   22632   22629      66   22641   22638      65
   22644   22638      65   22644   22641      66   22653   22650      65   22656
   22650      65   22656   22653      66   22665   22662      65   22668   22662
      65   22668   22665      66   22677   22674      65   22680   22674      65
   22680   22677      66   22689   22686      65   22692   22686      65   22692
   22689      66   22701   22698      65   22704   22698      65   22704   22701
      66   22713   22710      65   22716   22710      65   22716   22713      66
   22725   22722      65   22728   22722      65   22728   22725      66   22737
   22734      65   22740   22734      65   22740   22737      66   22749   22746
      65   22752   22746      65   22752   22749      66   22761   22758      65
   22764   22758      65   22764   22761      66   22773   22770      65   22776
   22770      65   22776   22773      66   22785   22782      65   22788   22782
      65   22788   22785      66   22797   22794      65   22800   22794      65
   22800   22797      66   22809   22806      65   22812   22806      65   22812
   22809      66   22821   22818      65   22824   22818      65   22824   22821
      66   22833   22830      65   22836   22830      65   22836   22833      66
   22845   22842      65   22848   22842      65   22848   22845      66   22857
   22854      65   22860   22854      65   22860   22857      66   22869   22866
      65   22872   22866      65   22872   22869      66   22881   22878      65
   22884   22878      65   22884   22881      66   22893   22890      65   22896
   22890      65   22896   22893      66   22905   22902      65   22908   22902
      65   22908   22905      66   22917   22914      65   22920   22914      65
   22920   22917      66   22929   22926      65   22932   22926      65   22932
   22929      66   22941   22938      65   22944   22938      65   22944   22941
      66   22953   22950      65   22956   22950      65   22956   22953      66
   22965   22962      65   22968   22962      65   22968   22965      66   22977
   22974      65   22980   22974      65   22980   22977      66   22989   22986
      65   22992   22986      65   22992   22989      66   23001   22998      65
   23004   22998      65   23004   23001      66   23013   23010      65   23016
   23010      65   23016   23013      66   23025   23022      65   23028   23022
      65   23028   23025      66   23037   23034      65   23040   23034      65
   23040   23037      66   23049   23046      65   23052   23046      65   23052
   23049      66
%FLAG BONDS_WITHOUT_HYDROGEN
%FORMAT(10I8)
     438     432       2     444     438       4     453     444       6     459
     453       8     471     453       8     483     438      10     486     483
      11     489     483      11     372     366      12     378     372      14
     387     378      16     396     387      16     405     396      16     414
     405      18     426     372      20     426     432      21     429     426
      22     330     324      12     336     330      23     342     336       8
     354     336      25     360     330      20     360     366      21     363
     360      22     282     276      12     288     282      23     294     288
       8     306     288       8     318     282      20     318     324      21
     321     318      22     225     213      27     231     225       4     240
     231       6     246     240       8     258     240       8     270     225
      10     270     276      21     273     270      22     183     177       2
     189     183       4     198     189      30     204     183      10     207
     204      11     210     204      11     132     126      12     138     132
      31     147     138      32     150     147      33     153     150      34
     159     153      36     165     147      38     165     159      39     171
     132      20     171     177      21     174     171      22     102      96
      12     108     102      31     120     102      20     120     126      21
     123     120      22      45      39      12      51      45      41      60
      51       6      66      60       8      78      60       8      90      45
      20      90      96      21      93      90      22      12       0      27
      18      12       4      27      18      30      33      12      10      33
      39      21      36      33      22     561     567      43     561     564
      44     558     564      44     555     561      44     552     558      44
     549     555      44     549     552      44     540     549      45     534
     537      47     534     540      48     531     534      48     519     525
      50     519     528      51     519     522      50     513     516      53
     510     513      54     507     510      56     504     507      58     501
     504      59     501     516      60     498     531      61     498     501
      59     495     498      62     492     495      63     492     504      59
     492     519      64     663     654      67     675     666      67     687
     678      67     699     690      67     711     702      67     723     714
      67     735     726      67     747     738      67     759     750      67
     771     762      67     783     774      67     795     786      67     807
     798      67     819     810      67     831     822      67     843     834
      67     855     846      67     867     858      67     879     870      67
     891     882      67     903     894      67     915     906      67     927
     918      67     939     930      67     951     942      67     963     954
      67     975     966      67     987     978      67     999     990      67
    1011    1002      67    1023    1014      67    1035    1026      67    1047
    1038      67    1059    1050      67    1071    1062      67    1083    1074
      67    1095    1086      67    1107    1098      67    1119    1110      67
    1131    1122      67    1143    1134      67    1155    1146      67    1167
    1158      67    1179    1170      67    1191    1182      67    1203    1194
      67    1215    1206      67    1227    1218      67    1239    1230      67
    1251    1242      67    1263    1254      67    1275    1266      67    1287
    1278      67    1299    1290      67    1311    1302      67    1323    1314
      67    1335    1326      67    1347    1338      67    1359    1350      67
    1371    1362      67    1383    1374      67    1395    1386      67    1407
    1398      67    1419    1410      67    1431    1422      67    1443    1434
      67    1455    1446      67    1467    1458      67    1479    1470      67
    1491    1482      67    1503    1494      67    1515    1506      67    1527
    1518      67    1539    1530      67    1551    1542      67    1563    1554
      67    1575    1566      67    1587    1578      67    1599    1590      67
    1611    1602      67    1623    1614      67    1635    1626      67    1647
    1638      67    1659    1650      67    1671    1662      67    1683    1674
      67    1695    1686      67    1707    1698      67    1719    1710      67
    1731    1722      67    1743    1734      67    1755    1746      67    1767
    1758      67    1779    1770      67    1791    1782      67    1803    1794
      67    1815    1806      67    1827    1818      67    1839    1830      67
    1851    1842      67    1863    1854      67    1875    1866      67    1887
    1878      67    1899    1890      67    1911    1902      67    1923    1914
      67    1935    1926      67    1947    1938      67    1959    1950      67
    1971    1962      67    1983    1974      67    1995    1986      67    2007
    1998      67    2019    2010      67    2031    2022      67    2043    2034
      67    2055    2046      67    2067    2058      67    2079    2070      67
    2091    2082      67    2103    2094      67    2115    2106      67    2127
    2118      67    2139    2130      67    2151    2142      67    2163    2154
      67    2175    2166      67    2187    2178      67    2199    2190      67
    2211    2202      67    2223    2214      67    2235    2226      67    2247
    2238      67    2259    2250      67    2271    2262      67    2283    2274
      67    2295    2286      67    2307    2298      67    2319    2310      67
    2331    2322      67    2343    2334      67    2355    2346      67    2367
    2358      67    2379    2370      67    2391    2382      67    2403    2394
      67    2415    2406      67    2427    2418      67    2439    2430      67
    2451    2442      67    2463    2454      67    2475    2466      67    2487
    2478      67    2499    2490      67    2511    2502      67    2523    2514
      67    2535    2526      67    2547    2538      67    2559    2550      67
    2571    2562      67    2583    2574      67    2595    2586      67    2607
    2598      67    2619    2610      67    2631    2622      67    2643    2634
      67    2655    2646      67    2667    2658      67    2679    2670      67
    2691    2682      67    2703    2694      67    2715    2706      67    2727
    2718      67    2739    2730      67    2751    2742      67    2763    2754
      67    2775    2766      67    2787    2778      67    2799    2790      67
    2811    2802      67    2823    2814      67    2835    2826      67    2847
    2838      67    2859    2850      67    2871    2862      67    2883    2874
      67    2895    2886      67    2907    2898      67    2919    2910      67
    2931    2922      67    2943    2934      67    2955    2946      67    2967
    2958      67    2979    2970      67    2991    2982      67    3003    2994
      67    3015    3006      67    3027    3018      67    3039    3030      67
    3051    3042      67    3063    3054      67    3075    3066      67    3087
    3078      67    3099    3090      67    3111    3102      67    3123    3114
      67    3135    3126      67    3147    3138      67    3159    3150      67
    3171    3162      67    3183    3174      67    3195    3186      67    3207
    3198      67    3219    3210      67    3231    3222      67    3243    3234
      67    3255    3246      67    3267    3258      67    3279    3270      67
    3291    3282      67    3303    3294      67    3315    3306      67    3327
    3318      67    3339    3330      67    3351    3342      67    3363    3354
      67    3375    3366      67    3387    3378      67    3399    3390      67
    3411    3402      67    3423    3414      67    3435    3426      67    3447
    3438      67    3459    3450      67    3471    3462      67    3483    3474
      67    3495    3486      67    3507    3498      67    3519    3510      67
    3531    3522      67    3543    3534      67    3555    3546      67    3567
    3558      67    3579    3570      67    3591    3582      67    3603    3594
      67    3615    3606      67    3627    3618      67    3639    3630      67
    3651    3642      67    3663    3654      67    3675    3666      67    3687
    3678      67    3699    3690      67    3711    3702      67    3723    3714
      67    3735    3726      67    3747    3738      67    3759    3750      67
    3771    3762      67    3783    3774      67    3795    3786      67    3807
    3798      67    3819    3810      67    3831    3822      67    3843    3834
      67    3855    3846      67    3867    3858      67    3879    3870      67
    3891    3882      67    3903    3894      67    3915    3906      67    3927
    3918      67    3939    3930      67    3951    3942      67    3963    3954
      67    3975    3966      67    3987    3978      67    3999    3990      67
    4011    4002      67    4023    4014      67    4035    4026      67    4047
    4038      67    4059    4050      67    4071    4062      67    4083    4074
      67    4095    4086      67    4107    4098      67    4119    4110      67
    4131    4122      67    4143    4134      67    4155    4146      67    4167
    4158      67    4179    4170      67    4191    4182      67    4203    4194
      67    4215    4206      67    4227    4218      67    4239    4230      67
    4251    4242      67    4263    4254      67    4275    4266      67    4287
    4278      67    4299    4290      67    4311    4302      67    4323    4314
      67    4335    4326      67    4347    4338      67    4359    4350      67
    4371    4362      67    4383    4374      67    4395    4386      67    4407
    4398      67    4419    4410      67    4431    4422      67    4443    4434
      67    4455    4446      67    4467    4458      67    4479    4470      67
    4491    4482      67    4503    4494      67    4515    4506      67    4527
    4518      67    4539    4530      67    4551    4542      67    4563    4554
      67    4575    4566      67    4587    4578      67    4599    4590      67
    4611    4602      67    4623    4614      67    4635    4626      67    4647
    4638      67    4659    4650      67    4671    4662      67    4683    4674
      67    4695    4686      67    4707    4698      67    4719    4710      67
    4731    4722      67    4743    4734      67    4755    4746      67    4767
    4758      67    4779    4770      67    4791    4782      67    4803    4794
      67    4815    4806      67    4827    4818      67    4839    4830      67
    4851    4842      67    4863    4854      67    4875    4866      67    4887
    4878      67    4899    4890      67    4911    4902      67    4923    4914
      67    4935    4926      67    4947    4938      67    4959    4950      67
    4971    4962      67    4983    4974      67    4995    4986      67    5007
    4998      67    5019    5010      67    5031    5022      67    5043    5034
      67    5055    5046      67    5067    5058      67    5079    5070      67
    5091    5082      67    5103    5094      67    5115    5106      67    5127
    5118      67    5139    5130      67    5151    5142      67    5163    5154
      67    5175    5166      67    5187    5178      67    5199    5190      67
    5211    5202      67    5223    5214      67    5235    5226      67    5247
    5238      67    5259    5250      67    5271    5262      67    5283    5274
      67    5295    5286      67    5307    5298      67    5319    5310      67
    5331    5322      67    5343    5334      67    5355    5346      67    5367
    5358      67    5379    5370      67    5391    5382      67    5403    5394
      67    5415    5406      67    5427    5418      67    5439    5430      67
    5451    5442      67    5463    5454      67    5475    5466      67    5487
    5478      67    5499    5490      67    5511    5502      67    5523    5514
      67    5535    5526      67    5547    5538      67    5559    5550      67
    5571    5562      67    5583    5574      67    5595    5586      67    5607
    5598      67    5619    5610      67    5631    5622      67    5643    5634
      67    5655    5646      67    5667    5658      67    5679    5670      67
    5691    5682      67    5703    5694      67    5715    5706      67    5727
    5718      67    5739    5730      67    5751    5742      67    5763    5754
      67    5775    5766      67    5787    5778      67    5799    5790      67
    5811    5802      67    5823    5814      67    5835    5826      67    5847
    5838      67    5859    5850      67    5871    5862      67    5883    5874
      67    5895    5886      67    5907    5898      67    5919    5910      67
    5931    5922      67    5943    5934      67    5955    5946      67    5967
    5958      67    5979    5970      67    5991    5982      67    6003    5994
      67    6015    6006      67    6027    6018      67    6039    6030      67
    6051    6042      67    6063    6054      67    6075    6066      67    6087
    6078      67    6099    6090      67    6111    6102      67    6123    6114
      67    6135    6126      67    6147    6138      67    6159    6150      67
    6171    6162      67    6183    6174      67    6195    6186      67    6207
    6198      67    6219    6210      67    6231    6222      67    6243    6234
      67    6255    6246      67    6267    6258      67    6279    6270      67
    6291    6282      67    6303    6294      67    6315    6306      67    6327
    6318      67    6339    6330      67    6351    6342      67    6363    6354
      67    6375    6366      67    6387    6378      67    6399    6390      67
    6411    6402      67    6423    6414      67    6435    6426      67    6447
    6438      67    6459    6450      67    6471    6462      67    6483    6474
      67    6495    6486      67    6507    6498      67    6519    6510      67
    6531    6522      67    6543    6534      67    6555    6546      67    6567
    6558      67    6579    6570      67    6591    6582      67    6603    6594
      67    6615    6606      67    6627    6618      67    6639    6630      67
    6651    6642      67    6663    6654      67    6675    6666      67    6687
    6678      67    6699    6690      67    6711    6702      67    6723    6714
      67    6735    6726      67    6747    6738      67    6759    6750      67
    6771    6762      67    6783    6774      67    6795    6786      67    6807
    6798      67    6819    6810      67    6831    6822      67    6843    6834
      67    6855    6846      67    6867    6858      67    6879    6870      67
    6891    6882      67    6903    6894      67    6915    6906      67    6927
    6918      67    6939    6930      67    6951    6942      67    6963    6954
      67    6975    6966      67    6987    6978      67    6999    6990      67
    7011    7002      67    7023    7014      67    7035    7026      67    7047
    7038      67    7059    7050      67    7071    7062      67    7083    7074
      67    7095    7086      67    7107    7098      67    7119    7110      67
    7131    7122      67    7143    7134      67    7155    7146      67    7167
    7158      67    7179    7170      67    7191    7182      67    7203    7194
      67    7215    7206      67    7227    7218      67    7239    7230      67
    7251    7242      67    7263    7254      67    7275    7266      67    7287
    7278      67    7299    7290      67    7311    7302      67    7323    7314
      67    7335    7326      67    7347    7338      67    7359    7350      67
    7371    7362      67    7383    7374      67    7395    7386      67    7407
    7398      67    7419    7410      67    7431    7422      67    7443    7434
      67    7455    7446      67    7467    7458      67    7479    7470      67
    7491    7482      67    7503    7494      67    7515    7506      67    7527
    7518      67    7539    7530      67    7551    7542      67    7563    7554
      67    7575    7566      67    7587    7578      67    7599    7590      67
    7611    7602      67    7623    7614      67    7635    7626      67    7647
    7638      67    7659    7650      67    7671    7662      67    7683    7674
      67    7695    7686      67    7707    7698      67    7719    7710      67
    7731    7722      67    7743    7734      67    7755    7746      67    7767
    7758      67    7779    7770      67    7791    7782      67    7803    7794
      67    7815    7806      67    7827    7818      67    7839    7830      67
    7851    7842      67    7863    7854      67    7875    7866      67    7887
    7878      67    7899    7890      67    7911    7902      67    7923    7914
      67    7935    7926      67    7947    7938      67    7959    7950      67
    7971    7962      67    7983    7974      67    7995    7986      67    8007
    7998      67    8019    8010      67    8031    8022      67    8043    8034
      67    8055    8046      67    8067    8058      67    8079    8070      67
    8091    8082      67    8103    8094      67    8115    8106      67    8127
    8118      67    8139    8130      67    8151    8142      67    8163    8154
      67    8175    8166      67    8187    8178      67    8199    8190      67
    8211    8202      67    8223    8214      67    8235    8226      67    8247
    8238      67    8259    8250      67    8271    8262      67    8283    8274
      67    8295    8286      67    8307    8298      67    8319    8310      67
    8331    8322      67    8343    8334      67    8355    8346      67    8367
    8358      67    8379    8370      67    8391    8382      67    8403    8394
      67    8415    8406      67    8427    8418      67    8439    8430      67
    8451    8442      67    8463    8454      67    8475    8466      67    8487
    8478      67    8499    8490      67    8511    8502      67    8523    8514
      67    8535    8526      67    8547    8538      67    8559    8550      67
    8571    8562      67    8583    8574      67    8595    8586      67    8607
    8598      67    8619    8610      67    8631    8622      67    8643    8634
      67    8655    8646      67    8667    8658      67    8679    8670      67
    8691    8682      67    8703    8694      67    8715    8706      67    8727
    8718      67    8739    8730      67    8751    8742      67    8763    8754
      67    8775    8766      67    8787    8778      67    8799    8790      67
    8811    8802      67    8823    8814      67    8835    8826      67    8847
    8838      67    8859    8850      67    8871    8862      67    8883    8874
      67    8895    8886      67    8907    8898      67    8919    8910      67
    8931    8922      67    8943    8934      67    8955    8946      67    8967
    8958      67    8979    8970      67    8991    8982      67    9003    8994
      67    9015    9006      67    9027    9018      67    9039    9030      67
    9051    9042      67    9063    9054      67    9075    9066      67    9087
    9078      67    9099    9090      67    9111    9102      67    9123    9114
      67    9135    9126      67    9147    9138      67    9159    9150      67
    9171    9162      67    9183    9174      67    9195    9186      67    9207
    9198      67    9219    9210      67    9231    9222      67    9243    9234
      67    9255    9246      67    9267    9258      67    9279    9270      67
    9291    9282      67    9303    9294      67    9315    9306      67    9327
    9318      67    9339    9330      67    9351    9342      67    9363    9354
      67    9375    9366      67    9387    9378      67    9399    9390      67
    9411    9402      67    9423    9414      67    9435    9426      67    9447
    9438      67    9459    9450      67    9471    9462      67    9483    9474
      67    9495    9486      67    9507    9498      67    9519    9510      67
    9531    9522      67    9543    9534      67    9555    9546      67    9567
    9558      67    9579    9570      67    9591    9582      67    9603    9594
      67    9615    9606      67    9627    9618      67    9639    9630      67
    9651    9642      67    9663    9654      67    9675    9666      67    9687
    9678      67    9699    9690      67    9711    9702      67    9723    9714
      67    9735    9726      67    9747    9738      67    9759    9750      67
    9771    9762      67    9783    9774      67    9795    9786      67    9807
    9798      67    9819    9810      67    9831    9822      67    9843    9834
      67    9855    9846      67    9867    9858      67    9879    9870      67
    9891    9882      67    9903    9894      67    9915    9906      67    9927
    9918      67    9939    9930      67    9951    9942      67    9963    9954
      67    9975    9966      67    9987    9978      67    9999    9990      67
   10011   10002      67   10023   10014      67   10035   10026      67   10047
   10038      67   10059   10050      67   10071   10062      67   10083   10074
      67   10095   10086      67   10107   10098      67   10119   10110      67
   10131   10122      67   10143   10134      67   10155   10146      67   10167
   10158      67   10179   10170      67   10191   10182      67   10203   10194
      67   10215   10206      67   10227   10218      67   10239   10230      67
   10251   10242      67   10263   10254      67   10275   10266      67   10287
   10278      67   10299   10290      67   10311   10302      67   10323   10314
      67   10335   10326      67   10347   10338      67   10359   10350      67
   10371   10362      67   10383   10374      67   10395   10386      67   10407
   10398      67   10419   10410      67   10431   10422      67   10443   10434
      67   10455   10446      67   10467   10458      67   10479   10470      67
   10491   10482      67   10503   10494      67   10515   10506      67   10527
   10518      67   10539   10530      67   10551   10542      67   10563   10554
      67   10575   10566      67   10587   10578      67   10599   10590      67
   10611   10602      67   10623   10614      67   10635   10626      67   10647
   10638      67   10659   10650      67   10671   10662      67   10683   10674
      67   10695   10686      67   10707   10698      67   10719   10710      67
   10731   10722      67   10743   10734      67   10755   10746      67   10767
   10758      67   10779   10770      67   10791   10782      67   10803   10794
      67   10815   10806      67   10827   10818      67   10839   10830      67
   10851   10842      67   10863   10854      67   10875   10866      67   10887
   10878      67   10899   10890      67   10911   10902      67   10923   10914
      67   10935   10926      67   10947   10938      67   10959   10950      67
   10971   10962      67   10983   10974      67   10995   10986      67   11007
   10998      67   11019   11010      67   11031   11022      67   11043   11034
      67   11055   11046      67   11067   11058      67   11079   11070      67
   11091   11082      67   11103   11094      67   11115   11106      67   11127
   11118      67   11139   11130      67   11151   11142      67   11163   11154
      67   11175   11166      67   11187   11178      67   11199   11190      67
   11211   11202      67   11223   11214      67   11235   11226      67   11247
   11238      67   11259   11250      67   11271   11262      67   11283   11274
      67   11295   11286      67   11307   11298      67   11319   11310      67
   11331   11322      67   11343   11334      67   11355   11346      67   11367
   11358      67   11379   11370      67   11391   11382      67   11403   11394
      67   11415   11406      67   11427   11418      67   11439   11430      67
   11451   11442      67   11463   11454      67   11475   11466      67   11487
   11478      67   11499   11490      67   11511   11502      67   11523   11514
      67   11535   11526      67   11547   11538      67   11559   11550      67
   11571   11562      67   11583   11574      67   11595   11586      67   11607
   11598      67   11619   11610      67   11631   11622      67   11643   11634
      67   11655   11646      67   11667   11658      67   11679   11670      67
   11691   11682      67   11703   11694      67   11715   11706      67   11727
   11718      67   11739   11730      67   11751   11742      67   11763   11754
      67   11775   11766      67   11787   11778      67   11799   11790      67
   11811   11802      67   11823   11814      67   11835   11826      67   11847
   11838      67   11859   11850      67   11871   11862      67   11883   11874
      67   11895   11886      67   11907   11898      67   11919   11910      67
   11931   11922      67   11943   11934      67   11955   11946      67   11967
   11958      67   11979   11970      67   11991   11982      67   12003   11994
      67   12015   12006      67   12027   12018      67   12039   12030      67
   12051   12042      67   12063   12054      67   12075   12066      67   12087
   12078      67   12099   12090      67   12111   12102      67   12123   12114
      67   12135   12126      67   12147   12138      67   12159   12150      67
   12171   12162      67   12183   12174      67   12195   12186      67   12207
   12198      67   12219   12210      67   12231   12222      67   12243   12234
      67   12255   12246      67   12267   12258      67   12279   12270      67
   12291   12282      67   12303   12294      67   12315   12306      67   12327
   12318      67   12339   12330      67   12351   12342      67   12363   12354
      67   12375   12366      67   12387   12378      67   12399   12390      67
   12411   12402      67   12423   12414      67   12435   12426      67   12447
   12438      67   12459   12450      67   12471   12462      67   12483   12474
      67   12495   12486      67   12507   12498      67   12519   12510      67
   12531   12522      67   12543   12534      67   12555   12546      67   12567
   12558      67   12579   12570      67   12591   12582      67   12603   12594
      67   12615   12606      67   12627   12618      67   12639   12630      67
   12651   12642      67   12663   12654      67   12675   12666      67   12687
   12678      67   12699   12690      67   12711   12702      67   12723   12714
      67   12735   12726      67   12747   12738      67   12759   12750      67
   12771   12762      67   12783   12774      67   12795   12786      67   12807
   12798      67   12819   12810      67   12831   12822      67   12843   12834
      67   12855   12846      67   12867   12858      67   12879   12870      67
   12891   12882      67   12903   12894      67   12915   12906      67   12927
   12918      67   12939   12930      67   12951   12942      67   12963   12954
      67   12975   12966      67   12987   12978      67   12999   12990      67
   13011   13002      67   13023   13014      67   13035   13026      67   13047
   13038      67   13059   13050      67   13071   13062      67   13083   13074
      67   13095   13086      67   13107   13098      67   13119   13110      67
   13131   13122      67   13143   13134      67   13155   13146      67   13167
   13158      67   13179   13170      67   13191   13182      67   13203   13194
      67   13215   13206      67   13227   13218      67   13239   13230      67
   13251   13242      67   13263   13254      67   13275   13266      67   13287
   13278      67   13299   13290      67   13311   13302      67   13323   13314
      67   13335   13326      67   13347   13338      67   13359   13350      67
   13371   13362      67   13383   13374      67   13395   13386      67   13407
   13398      67   13419   13410      67   13431   13422      67   13443   13434
      67   13455   13446      67   13467   13458      67   13479   13470      67
   13491   13482      67   13503   13494      67   13515   13506      67   13527
   13518      67   13539   13530      67   13551   13542      67   13563   13554
      67   13575   13566      67   13587   13578      67   13599   13590      67
   13611   13602      67   13623   13614      67   13635   13626      67   13647
   13638      67   13659   13650      67   13671   13662      67   13683   13674
      67   13695   13686      67   13707   13698      67   13719   13710      67
   13731   13722      67   13743   13734      67   13755   13746      67   13767
   13758      67   13779   13770      67   13791   13782      67   13803   13794
      67   13815   13806      67   13827   13818      67   13839   13830      67
   13851   13842      67   13863   13854      67   13875   13866      67   13887
   13878      67   13899   13890      67   13911   13902      67   13923   13914
      67   13935   13926      67   13947   13938      67   13959   13950      67
   13971   13962      67   13983   13974      67   13995   13986      67   14007
   13998      67   14019   14010      67   14031   14022      67   14043   14034
      67   14055   14046      67   14067   14058      67   14079   14070      67
   14091   14082      67   14103   14094      67   14115   14106      67   14127
   14118      67   14139   14130      67   14151   14142      67   14163   14154
      67   14175   14166      67   14187   14178      67   14199   14190      67
   14211   14202      67   14223   14214      67   14235   14226      67   14247
   14238      67   14259   14250      67   14271   14262      67   14283   14274
      67   14295   14286      67   14307   14298      67   14319   14310      67
   14331   14322      67   14343   14334      67   14355   14346      67   14367
   14358      67   14379   14370      67   14391   14382      67   14403   14394
      67   14415   14406      67   14427   14418      67   14439   14430      67
   14451   14442      67   14463   14454      67   14475   14466      67   14487
   14478      67   14499   14490      67   14511   14502      67   14523   14514
      67   14535   14526      67   14547   14538      67   14559   14550      67
   14571   14562      67   14583   14574      67   14595   14586      67   14607
   14598      67   14619   14610      67   14631   14622      67   14643   14634
      67   14655   14646      67   14667   14658      67   14679   14670      67
   14691   14682      67   14703   14694      67   14715   14706      67   14727
   14718      67   14739   14730      67   14751   14742      67   14763   14754
      67   14775   14766      67   14787   14778      67   14799   14790      67
   14811   14802      67   14823   14814      67   14835   14826      67   14847
   14838      67   14859   14850      67   14871   14862      67   14883   14874
      67   14895   14886      67   14907   14898      67   14919   14910      67
   14931   14922      67   14943   14934      67   14955   14946      67   14967
   14958      67   14979   14970      67   14991   14982      67   15003   14994
      67   15015   15006      67   15027   15018      67   15039   15030      67
   15051   15042      67   15063   15054      67   15075   15066      67   15087
   15078      67   15099   15090      67   15111   15102      67   15123   15114
      67   15135   15126      67   15147   15138      67   15159   15150      67
   15171   15162      67   15183   15174      67   15195   15186      67   15207
   15198      67   15219   15210      67   15231   15222      67   15243   15234
      67   15255   15246      67   15267   15258      67   15279   15270      67
   15291   15282      67   15303   15294      67   15315   15306      67   15327
   15318      67   15339   15330      67   15351   15342      67   15363   15354
      67   15375   15366      67   15387   15378      67   15399   15390      67
   15411   15402      67   15423   15414      67   15435   15426      67   15447
   15438      67   15459   15450      67   15471   15462      67   15483   15474
      67   15495   15486      67   15507   15498      67   15519   15510      67
   15531   15522      67   15543   15534      67   15555   15546      67   15567
   15558      67   15579   15570      67   15591   15582      67   15603   15594
      67   15615   15606      67   15627   15618      67   15639   15630      67
   15651   15642      67   15663   15654      67   15675   15666      67   15687
   15678      67   15699   15690      67   15711   15702      67   15723   15714
      67   15735   15726      67   15747   15738      67   15759   15750      67
   15771   15762      67   15783   15774      67   15795   15786      67   15807
   15798      67   15819   15810      67   15831   15822      67   15843   15834
      67   15855   15846      67   15867   15858      67   15879   15870      67
   15891   15882      67   15903   15894      67   15915   15906      67   15927
   15918      67   15939   15930      67   15951   15942      67   15963   15954
      67   15975   15966      67   15987   15978      67   15999   15990      67
   16011   16002      67   16023   16014      67   16035   16026      67   16047
   16038      67   16059   16050      67   16071   16062      67   16083   16074
      67   16095   16086      67   16107   16098      67   16119   16110      67
   16131   16122      67   16143   16134      67   16155   16146      67   16167
   16158      67   16179   16170      67   16191   16182      67   16203   16194
      67   16215   16206      67   16227   16218      67   16239   16230      67
   16251   16242      67   16263   16254      67   16275   16266      67   16287
   16278      67   16299   16290      67   16311   16302      67   16323   16314
      67   16335   16326      67   16347   16338      67   16359   16350      67
   16371   16362      67   16383   16374      67   16395   16386      67   16407
   16398      67   16419   16410      67   16431   16422      67   16443   16434
      67   16455   16446      67   16467   16458      67   16479   16470      67
   16491   16482      67   16503   16494      67   16515   16506      67   16527
   16518      67   16539   16530      67   16551   16542      67   16563   16554
      67   16575   16566      67   16587   16578      67   16599   16590      67
   16611   16602      67   16623   16614      67   16635   16626      67   16647
   16638      67   16659   16650      67   16671   16662      67   16683   16674
      67   16695   16686      67   16707   16698      67   16719   16710      67
   16731   16722      67   16743   16734      67   16755   16746      67   16767
   16758      67   16779   16770      67   16791   16782      67   16803   16794
      67   16815   16806      67   16827   16818      67   16839   16830      67
   16851   16842      67   16863   16854      67   16875   16866      67   16887
   16878      67   16899   16890      67   16911   16902      67   16923   16914
      67   16935   16926      67   16947   16938      67   16959   16950      67
   16971   16962      67   16983   16974      67   16995   16986      67   17007
   16998      67   17019   17010      67   17031   17022      67   17043   17034
      67   17055   17046      67   17067   17058      67   17079   17070      67
   17091   17082      67   17103   17094      67   17115   17106      67   17127
   17118      67   17139   17130      67   17151   17142      67   17163   17154
      67   17175   17166      67   17187   17178      67   17199   17190      67
   17211   17202      67   17223   17214      67   17235   17226      67   17247
   17238      67   17259   17250      67   17271   17262      67   17283   17274
      67   17295   17286      67   17307   17298      67   17319   17310      67
   17331   17322      67   17343   17334      67   17355   17346      67   17367
   17358      67   17379   17370      67   17391   17382      67   17403   17394
      67   17415   17406      67   17427   17418      67   17439   17430      67
   17451   17442      67   17463   17454      67   17475   17466      67   17487
   17478      67   17499   17490      67   17511   17502      67   17523   17514
      67   17535   17526      67   17547   17538      67   17559   17550      67
   17571   17562      67   17583   17574      67   17595   17586      67   17607
   17598      67   17619   17610      67   17631   17622      67   17643   17634
      67   17655   17646      67   17667   17658      67   17679   17670      67
   17691   17682      67   17703   17694      67   17715   17706      67   17727
   17718      67   17739   17730      67   17751   17742      67   17763   17754
      67   17775   17766      67   17787   17778      67   17799   17790      67
   17811   17802      67   17823   17814      67   17835   17826      67   17847
   17838      67   17859   17850      67   17871   17862      67   17883   17874
      67   17895   17886      67   17907   17898      67   17919   17910      67
   17931   17922      67   17943   17934      67   17955   17946      67   17967
   17958      67   17979   17970      67   17991   17982      67   18003   17994
      67   18015   18006      67   18027   18018      67   18039   18030      67
   18051   18042      67   18063   18054      67   18075   18066      67   18087
   18078      67   18099   18090      67   18111   18102      67   18123   18114
      67   18135   18126      67   18147   18138      67   18159   18150      67
   18171   18162      67   18183   18174      67   18195   18186      67   18207
   18198      67   18219   18210      67   18231   18222      67   18243   18234
      67   18255   18246      67   18267   18258      67   18279   18270      67
   18291   18282      67   18303   18294      67   18315   18306      67   18327
   18318      67   18339   18330      67   18351   18342      67   18363   18354
      67   18375   18366      67   18387   18378      67   18399   18390      67
   18411   18402      67   18423   18414      67   18435   18426      67   18447
   18438      67   18459   18450      67   18471   18462      67   18483   18474
      67   18495   18486      67   18507   18498      67   18519   18510      67
   18531   18522      67   18543   18534      67   18555   18546      67   18567
   18558      67   18579   18570      67   18591   18582      67   18603   18594
      67   18615   18606      67   18627   18618      67   18639   18630      67
   18651   18642      67   18663   18654      67   18675   18666      67   18687
   18678      67   18699   18690      67   18711   18702      67   18723   18714
      67   18735   18726      67   18747   18738      67   18759   18750      67
   18771   18762      67   18783   18774      67   18795   18786      67   18807
   18798      67   18819   18810      67   18831   18822      67   18843   18834
      67   18855   18846      67   18867   18858      67   18879   18870      67
   18891   18882      67   18903   18894      67   18915   18906      67   18927
   18918      67   18939   18930      67   18951   18942      67   18963   18954
      67   18975   18966      67   18987   18978      67   18999   18990      67
   19011   19002      67   19023   19014      67   19035   19026      67   19047
   19038      67   19059   19050      67   19071   19062      67   19083   19074
      67   19095   19086      67   19107   19098      67   19119   19110      67
   19131   19122      67   19143   19134      67   19155   19146      67   19167
   19158      67   19179   19170      67   19191   19182      67   19203   19194
      67   19215   19206      67   19227   19218      67   19239   19230      67
   19251   19242      67   19263   19254      67   19275   19266      67   19287
   19278      67   19299   19290      67   19311   19302      67   19323   19314
      67   19335   19326      67   19347   19338      67   19359   19350      67
   19371   19362      67   19383   19374      67   19395   19386      67   19407
   19398      67   19419   19410      67   19431   19422      67   19443   19434
      67   19455   19446      67   19467   19458      67   19479   19470      67
   19491   19482      67   19503   19494      67   19515   19506      67   19527
   19518      67   19539   19530      67   19551   19542      67   19563   19554
      67   19575   19566      67   19587   19578      67   19599   19590      67
   19611   19602      67   19623   19614      67   19635   19626      67   19647
   19638      67   19659   19650      67   19671   19662      67   19683   19674
      67   19695   19686      67   19707   19698      67   19719   19710      67
   19731   19722      67   19743   19734      67   19755   19746      67   19767
   19758      67   19779   19770      67   19791   19782      67   19803   19794
      67   19815   19806      67   19827   19818      67   19839   19830      67
   19851   19842      67   19863   19854      67   19875   19866      67   19887
   19878      67   19899   19890      67   19911   19902      67   19923   19914
      67   19935   19926      67   19947   19938      67   19959   19950      67
   19971   19962      67   19983   19974      67   19995   19986      67   20007
   19998      67   20019   20010      67   20031   20022      67   20043   20034
      67   20055   20046      67   20067   20058      67   20079   20070      67
   20091   20082      67   20103   20094      67   20115   20106      67   20127
   20118      67   20139   20130      67   20151   20142      67   20163   20154
      67   20175   20166      67   20187   20178      67   20199   20190      67
   20211   20202      67   20223   20214      67   20235   20226      67   20247
   20238      67   20259   20250      67   20271   20262      67   20283   20274
      67   20295   20286      67   20307   20298      67   20319   20310      67
   20331   20322      67   20343   20334      67   20355   20346      67   20367
   20358      67   20379   20370      67   20391   20382      67   20403   20394
      67   20415   20406      67   20427   20418      67   20439   20430      67
   20451   20442      67   20463   20454      67   20475   20466      67   20487
   20478      67   20499   20490      67   20511   20502      67   20523   20514
      67   20535   20526      67   20547   20538      67   20559   20550      67
   20571   20562      67   20583   20574      67   20595   20586      67   20607
   20598      67   20619   20610      67   20631   20622      67   20643   20634
      67   20655   20646      67   20667   20658      67   20679   20670      67
   20691   20682      67   20703   20694      67   20715   20706      67   20727
   20718      67   20739   20730      67   20751   20742      67   20763   20754
      67   20775   20766      67   20787   20778      67   20799   20790      67
   20811   20802      67   20823   20814      67   20835   20826      67   20847
   20838      67   20859   20850      67   20871   20862      67   20883   20874
      67   20895   20886      67   20907   20898      67   20919   20910      67
   20931   20922      67   20943   20934      67   20955   20946      67   20967
   20958      67   20979   20970      67   20991   20982      67   21003   20994
      67   21015   21006      67   21027   21018      67   21039   21030      67
   21051   21042      67   21063   21054      67   21075   21066      67   21087
   21078      67   21099   21090      67   21111   21102      67   21123   21114
      67   21135   21126      67   21147   21138      67   21159   21150      67
   21171   21162      67   21183   21174      67   21195   21186      67   21207
   21198      67   21219   21210      67   21231   21222      67   21243   21234
      67   21255   21246      67   21267   21258      67   21279   21270      67
   21291   21282      67   21303   21294      67   21315   21306      67   21327
   21318      67   21339   21330      67   21351   21342      67   21363   21354
      67   21375   21366      67   21387   21378      67   21399   21390      67
   21411   21402      67   21423   21414      67   21435   21426      67   21447
   21438      67   21459   21450      67   21471   21462      67   21483   21474
      67   21495   21486      67   21507   21498      67   21519   21510      67
   21531   21522      67   21543   21534      67   21555   21546      67   21567
   21558      67   21579   21570      67   21591   21582      67   21603   21594
      67   21615   21606      67   21627   21618      67   21639   21630      67
   21651   21642      67   21663   21654      67   21675   21666      67   21687
   21678      67   21699   21690      67   21711   21702      67   21723   21714
      67   21735   21726      67   21747   21738      67   21759   21750      67
   21771   21762      67   21783   21774      67   21795   21786      67   21807
   21798      67   21819   21810      67   21831   21822      67   21843   21834
      67   21855   21846      67   21867   21858      67   21879   21870      67
   21891   21882      67   21903   21894      67   21915   21906      67   21927
   21918      67   21939   21930      67   21951   21942      67   21963   21954
      67   21975   21966      67   21987   21978      67   21999   21990      67
   22011   22002      67   22023   22014      67   22035   22026      67   22047
   22038      67   22059   22050      67   22071   22062      67   22083   22074
      67   22095   22086      67   22107   22098      67   22119   22110      67
   22131   22122      67   22143   22134      67   22155   22146      67   22167
   22158      67   22179   22170      67   22191   22182      67   22203   22194
      67   22215   22206      67   22227   22218      67   22239   22230      67
   22251   22242      67   22263   22254      67   22275   22266      67   22287
   22278      67   22299   22290      67   22311   22302      67   22323   22314
      67   22335   22326      67   22347   22338      67   22359   22350      67
   22371   22362      67   22383   22374      67   22395   22386      67   22407
   22398      67   22419   22410      67   22431   22422      67   22443   22434
      67   22455   22446      67   22467   22458      67   22479   22470      67
   22491   22482      67   22503   22494      67   22515   22506      67   22527
   22518      67   22539   22530      67   22551   22542      67   22563   22554
      67   22575   22566      67   22587   22578      67   22599   22590      67
   22611   22602      67   22623   22614      67   22635   22626      67   22647
   22638      67   22659   22650      67   22671   22662      67   22683   22674
      67   22695   22686      67   22707   22698      67   22719   22710      67
   22731   22722      67   22743   22734      67   22755   22746      67   22767
   22758      67   22779   22770      67   22791   22782      67   22803   22794
      67   22815   22806      67   22827   22818      67   22839   22830      67
   22851   22842      67   22863   22854      67   22875   22866      67   22887
   22878      67   22899   22890      67   22911   22902      67   22923   22914
      67   22935   22926      67   22947   22938      67   22959   22950      67
   22971   22962      67   22983   22974      67   22995   22986      67   23007
   22998      67   23019   23010      67   23031   23022      67   23043   23034
      67   23055   23046      67
%FLAG ANGLES_INC_HYDROGEN
%FORMAT(10I8)
     438     432     435       1     441     438     432       2     444     438
     441       4     447     444     438       5     450     444     438       5
     450     444     447       6     453     444     447       8     453     444
     450       8     456     453     444       9     459     453     456      11
     462     459     453      12     465     459     453      12     465     459
     462      13     468     459     453      12     468     459     462      13
     468     459     465      13     471     453     456      11     474     471
     453      12     477     471     453      12     477     471     474      13
     480     471     453      12     480     471     474      13     480     471
     477      13     483     438     441      16     372     366     369      20
     375     372     366      22     378     372     375      24     381     378
     372      25     384     378     372      25     384     378     381      26
     387     378     381      28     387     378     384      28     390     387
     378      28     393     387     378      28     393     387     390      26
     396     387     390      28     396     387     393      28     399     396
     387      28     402     396     387      28     402     396     399      26
     405     396     399      28     405     396     402      28     408     405
     396      30     411     405     396      30     411     405     408      31
     414     405     408      33     414     405     411      33     417     414
     405      34     420     414     405      34     420     414     417      35
     423     414     405      34     423     414     417      35     423     414
     420      35     426     372     375      37     426     432     435      39
     330     324     327      20     333     330     324      22     336     330
     333      44     339     336     330      45     342     336     339      47
     345     342     336      12     348     342     336      12     348     342
     345      13     351     342     336      12     351     342     345      13
     351     342     348      13     354     336     339      49     357     354
     336      51     360     330     333      37     360     366     369      39
     282     276     279      20     285     282     276      22     288     282
     285      44     291     288     282      54     294     288     291      11
     297     294     288      12     300     294     288      12     300     294
     297      13     303     294     288      12     303     294     297      13
     303     294     300      13     306     288     291      11     309     306
     288      12     312     306     288      12     312     306     309      13
     315     306     288      12     315     306     309      13     315     306
     312      13     318     282     285      37     318     324     327      39
     219     213     216      35     222     213     216      35     222     213
     219      35     225     213     216      55     225     213     219      55
     225     213     222      55     228     225     213      57     231     225
     228      59     234     231     225       5     237     231     225       5
     237     231     234       6     240     231     234       8     240     231
     237       8     243     240     231       9     246     240     243      11
     249     246     240      12     252     246     240      12     252     246
     249      13     255     246     240      12     255     246     249      13
     255     246     252      13     258     240     243      11     261     258
     240      12     264     258     240      12     264     258     261      13
     267     258     240      12     267     258     261      13     267     258
     264      13     270     225     228      61     270     276     279      39
     183     177     180       1     186     183     177       2     189     183
     186       4     192     189     183      63     195     189     183      63
     195     189     192      64     198     189     192      66     198     189
     195      66     201     198     189      67     204     183     186      16
     132     126     129      20     135     132     126      22     138     132
     135      69     141     138     132      70     144     138     132      70
     144     138     141      13     147     138     141      72     147     138
     144      72     156     153     150      75     159     153     156      77
     162     159     153      79     165     159     162      83     168     165
     147      84     168     165     159      85     171     132     135      37
     171     177     180      39     102      96      99      20     105     102
      96      22     108     102     105      69     111     108     102      70
     114     108     102      70     114     108     111      13     117     108
     102      70     117     108     111      13     117     108     114      13
     120     102     105      37     120     126     129      39      45      39
      42      20      48      45      39      22      51      45      48      88
      54      51      45      89      57      51      45      89      57      51
      54       6      60      51      54       8      60      51      57       8
      63      60      51       9      66      60      63      11      69      66
      60      12      72      66      60      12      72      66      69      13
      75      66      60      12      75      66      69      13      75      66
      72      13      78      60      63      11      81      78      60      12
      84      78      60      12      84      78      81      13      87      78
      60      12      87      78      81      13      87      78      84      13
      90      45      48      37      90      96      99      39       6       0
       3      35       9       0       3      35       9       0       6      35
      12       0       3      55      12       0       6      55      12       0
       9      55      15      12       0      57      18      12      15      59
      21      18      12      63      24      18      12      63      24      18
      21      64      27      18      21      66      27      18      24      66
      30      27      18      67      33      12      15      61      33      39
      42      39     591     528     594      92     588     528     591      92
     588     528     594      92     582     516     585      93     576     513
     579      93     564     558     603      94     561     555     600      94
     561     564     606      94     558     552     597      94     558     564
     606      94     552     558     603      94     549     555     600      94
     549     552     597      94     546     540     549      97     534     531
     543     100     534     540     546     100     519     528     588     105
     519     528     591     105     519     528     594     105     516     513
     576     106     516     513     579     106     513     510     573     107
     513     516     582     106     513     516     585     106     510     507
     570     108     510     513     576     110     510     513     579     110
     507     510     573     112     504     507     570     116     501     516
     582     120     501     516     585     120     498     531     543     121
%FLAG ANGLES_WITHOUT_HYDROGEN
%FORMAT(10I8)
     444     438     432       3     453     444     438       7     459     453
     444      10     471     453     444      10     471     453     459      14
     483     438     432      15     483     438     444      17     486     483
     438      18     489     483     438      18     489     483     486      19
     372     426     432      21     378     372     366      23     387     378
     372      27     396     387     378      29     405     396     387      29
     414     405     396      32     426     372     366      36     426     372
     378      38     426     432     438      40     429     426     372      41
     429     426     432      42     330     360     366      21     336     330
     324      43     342     336     330      46     354     336     330      48
     354     336     342      50     360     330     324      36     360     330
     336      52     360     366     372      53     363     360     330      41
     363     360     366      42     282     318     324      21     288     282
     276      43     294     288     282      46     306     288     282      46
     306     288     294      14     318     282     276      36     318     282
     288      52     318     324     330      53     321     318     282      41
     321     318     324      42     225     270     276      56     231     225
     213      58     240     231     225       7     246     240     231      10
     258     240     231      10     258     240     246      14     270     225
     213      60     270     225     231      17     270     276     282      53
     273     270     225      62     273     270     276      42     189     183
     177       3     198     189     183      65     204     183     177      15
     204     183     189      17     207     204     183      18     210     204
     183      18     210     204     207      19     132     171     177      21
     138     132     126      68     147     138     132      71     150     147
     138      73     153     150     147      74     159     153     150      76
     159     165     147      78     165     147     138      80     165     147
     150      81     165     159     153      82     171     132     126      36
     171     132     138      86     171     177     183      40     174     171
     132      41     174     171     177      42     102     120     126      21
     108     102      96      68     120     102      96      36     120     102
     108      86     120     126     132      53     123     120     102      41
     123     120     126      42      45      90      96      21      51      45
      39      87      60      51      45      90      66      60      51      10
      78      60      51      10      78      60      66      14      90      45
      39      36      90      45      51      91      90      96     102      53
      93      90      45      41      93      90      96      42      12      33
      39      56      18      12       0      58      27      18      12      65
      33      12       0      60      33      12      18      17      33      39
      45      53      36      33      12      62      36      33      39      42
     564     561     567      95     558     564     561      96     555     561
     567      95     555     561     564      96     552     549     555      96
     552     558     564      96     549     555     561      96     549     552
     558      96     540     549     555      98     540     549     552      98
     537     534     540      99     534     540     549     101     531     534
     537      99     531     534     540     102     525     519     528     103
     522     519     525     104     522     519     528     103     510     513
     516     109     507     510     513     111     504     492     519     113
     504     501     516     114     504     507     510     115     501     498
     531     117     501     504     507     118     501     516     513     119
     498     531     534     122     498     501     504     123     498     501
     516     114     495     492     504     124     495     492     519     125
     495     498     531     126     495     498     501     127     492     495
     498     128     492     504     501     129     492     504     507     118
     492     519     525     130     492     519     528     131     492     519
     522     130
%FLAG DIHEDRALS_INC_HYDROGEN
%FORMAT(10I8)
     441     438     432     435       1     444     438     432     435       1
     447     444     438     432       2     447     444     438     441       2
     450     444     438     432       2     450     444     438     441       2
     453     444     438     441       2     456     453     444     438       7
     456     453     444     447       8     456     453     444     450       8
     459     453     444     447       7     459     453     444     450       7
     462     459     453     444       7     462     459     453     456       8
     465     459     453     444       7     465     459     453     456       8
     468     459     453     444       7     468     459     453     456       8
     471     453     444     447       7     471     453     444     450       7
     471     453     459     462       7     471     453     459     465       7
     471     453     459     468       7     474     471     453     444       7
     474     471     453     456       8     474     471     453     459       7
     477     471     453     444       7     477     471     453     456       8
     477     471     453     459       7     480     471     453     444       7
     480     471     453     456       8     480     471     453     459       7
     483     438     432     435       1     483     438     444     447       2
     483     438     444     450       2     486     483     438     441       1
     489     483     438     441       1     372     426     432     435      20
     375     372     366     369       1     375     372     426     432       1
     378     372     366     369       1     381     378     372     366       2
     381     378     372     375       2     384     378     372     366       2
     384     378     372     375       2     387     378     372     375       2
     390     387     378     372       7     390     387     378     381       8
     390     387     378     384       8     393     387     378     372       7
     393     387     378     381       8     393     387     378     384       8
     396     387     378     381       7     396     387     378     384       7
     399     396     387     378       7     399     396     387     390       8
     399     396     387     393       8     402     396     387     378       7
     402     396     387     390       8     402     396     387     393       8
     405     396     387     390       7     405     396     387     393       7
     408     405     396     387       2     408     405     396     399       2
     408     405     396     402       2     411     405     396     387       2
     411     405     396     399       2     411     405     396     402       2
     414     405     396     399       2     414     405     396     402       2
     417     414     405     396       2     417     414     405     408       2
     417     414     405     411       2     420     414     405     396       2
     420     414     405     408       2     420     414     405     411       2
     423     414     405     396       2     423     414     405     408       2
     423     414     405     411       2     426     372     366     369       1
     426     372     378     381       2     426     372     378     384       2
     426     432     438     441       1     429     426     372     375      21
     429     426    -372     375       1     429     426    -372     375      18
     429     426     432     435      26     429     426    -432     435      20
     330     360     366     369      20     333     330     324     327       1
     333     330     360     366       1     336     330     324     327       1
     339     336     330     324       2     339     336     330     333       2
     342     336     330     333       2     345     342     336     330       7
     345     342     336     339       2     348     342     336     330       7
     348     342     336     339       2     351     342     336     330       7
     351     342     336     339       2     354     336     330     333      39
     354     336    -330     333      22     354     336     342     345      39
     354     336    -342     345      22     354     336     342     348      39
     354     336    -342     348      22     354     336     342     351      39
     354     336    -342     351      22     357     354     336     330      40
     357     354    -336     330      41     357     354    -336     330      42
     357     354    -336     330      43     357     354     336     339      44
     357     354     336     342      45     357     354    -336     342      46
     357     354    -336     342      42     357     354    -336     342      47
     360     330     324     327       1     360     330     336     339       2
     360     366     372     375       1     363     360     330     333      21
     363     360    -330     333       1     363     360    -330     333      18
     363     360     366     369      26     363     360    -366     369      20
     282     318     324     327      20     285     282     276     279       1
     285     282     318     324       1     288     282     276     279       1
     291     288     282     276       2     291     288     282     285       2
     294     288     282     285       2     297     294     288     282       7
     297     294     288     291       8     300     294     288     282       7
     300     294     288     291       8     303     294     288     282       7
     303     294     288     291       8     306     288     282     285       2
     306     288     294     297       7     306     288     294     300       7
     306     288     294     303       7     309     306     288     282       7
     309     306     288     291       8     309     306     288     294       7
     312     306     288     282       7     312     306     288     291       8
     312     306     288     294       7     315     306     288     282       7
     315     306     288     291       8     315     306     288     294       7
     318     282     276     279       1     318     282     288     291       2
     318     324     330     333       1     321     318     282     285      21
     321     318    -282     285       1     321     318    -282     285      18
     321     318     324     327      26     321     318    -324     327      20
     225     270     276     279      20     228     225     213     216       2
     228     225     213     219       2     228     225     213     222       2
     228     225     270     276       1     231     225     213     216       2
     231     225     213     219       2     231     225     213     222       2
     234     231     225     213       2     234     231     225     228       2
     237     231     225     213       2     237     231     225     228       2
     240     231     225     228       2     243     240     231     225       7
     243     240     231     234       8     243     240     231     237       8
     246     240     231     234       7     246     240     231     237       7
     249     246     240     231       7     249     246     240     243       8
     252     246     240     231       7     252     246     240     243       8
     255     246     240     231       7     255     246     240     243       8
     258     240     231     234       7     258     240     231     237       7
     258     240     246     249       7     258     240     246     252       7
     258     240     246     255       7     261     258     240     231       7
     261     258     240     243       8     261     258     240     246       7
     264     258     240     231       7     264     258     240     243       8
     264     258     240     246       7     267     258     240     231       7
     267     258     240     243       8     267     258     240     246       7
     270     225     213     216       2     270     225     213     219       2
     270     225     213     222       2     270     225     231     234       2
     270     225     231     237       2     270     276     282     285       1
     273     270     225     228       1     273     270     276     279      26
     273     270    -276     279      20     186     183     177     180       1
     189     183     177     180       1     192     189     183     177       2
     192     189     183     186       2     195     189     183     177       2
     195     189     183     186       2     198     189     183     186      39
     198     189    -183     186      22     201     198     189     183      61
     201     198    -189     183      62     201     198    -189     183      63
     201     198    -189     183      64     201     198     189     192      44
     201     198     189     195      44     204     183     177     180       1
     204     183     189     192       2     204     183     189     195       2
     207     204     183     186       1     210     204     183     186       1
     132     171     177     180      20     135     132     126     129       1
     135     132     171     177       1     138     132     126     129       1
     141     138     132     126       2     141     138     132     135       2
     144     138     132     126       2     144     138     132     135       2
     147     138     132     135       2     150     147     138     141       1
     150     147     138     144       1     156     153     150     147      78
     162     159     153     150      80     162     159     153     156      80
     162     159     165     147      77     165     147     138     141       1
     165     147     138     144       1     165     159     153     156      80
     168     165     147     138      79     168     165     147     150      79
     168     165     159     153      77     168     165     159     162      77
     171     132     126     129       1     171     132     138     141       2
     171     132     138     144       2     171     177     183     186       1
     174     171     132     135      21     174     171    -132     135       1
     174     171    -132     135      18     174     171     177     180      26
     174     171    -177     180      20     102     120     126     129      20
     105     102      96      99       1     105     102     120     126       1
     108     102      96      99       1     111     108     102      96       2
     111     108     102     105       2     114     108     102      96       2
     114     108     102     105       2     117     108     102      96       2
     117     108     102     105       2     120     102      96      99       1
     120     102     108     111       2     120     102     108     114       2
     120     102     108     117       2     120     126     132     135       1
     123     120     102     105      21     123     120    -102     105       1
     123     120    -102     105      18     123     120     126     129      26
     123     120    -126     129      20      45      90      96      99      20
      48      45      39      42       1      48      45      90      96       1
      51      45      39      42       1      54      51      45      39       2
      54      51      45      48       2      57      51      45      39       2
      57      51      45      48       2      60      51      45      48       2
      63      60      51      45       7      63      60      51      54       8
      63      60      51      57       8      66      60      51      54       7
      66      60      51      57       7      69      66      60      51       7
      69      66      60      63       8      72      66      60      51       7
      72      66      60      63       8      75      66      60      51       7
      75      66      60      63       8      78      60      51      54       7
      78      60      51      57       7      78      60      66      69       7
      78      60      66      72       7      78      60      66      75       7
      81      78      60      51       7      81      78      60      63       8
      81      78      60      66       7      84      78      60      51       7
      84      78      60      63       8      84      78      60      66       7
      87      78      60      51       7      87      78      60      63       8
      87      78      60      66       7      90      45      39      42       1
      90      45      51      54       2      90      45      51      57       2
      90      96     102     105       1      93      90      45      48      21
      93      90     -45      48       1      93      90     -45      48      18
      93      90      96      99      26      93      90     -96      99      20
      12      33      39      42      20       3       0      12      15       2
       6       0      12      15       2       9       0      12      15       2
      15      12      33      39       1       3       0      12      18       2
       6       0      12      18       2       9       0      12      18       2
       0      12      18      21       2      21      18      12      15       2
       0      12      18      24       2      24      18      12      15       2
      27      18      12      15       2      30      27      18      12      61
      30      27     -18      12      62      30      27     -18      12      63
      30      27     -18      12      64      30      27      18      21      44
      30      27      18      24      44       3       0      12      33       2
       6       0      12      33       2       9       0      12      33       2
      33      12      18      21       2      33      12      18      24       2
      33      39      45      48       1      36      33      12      15       1
      36      33      39      42      26      36      33     -39      42      20
     603     558     564     606      84     597     552     558     603      84
     579     513     516     582      85     579     513     516     585      85
     576     513     516     582      85     576     513     516     585      85
     573     510     513     576       1     573     510     513     579       1
     570     507     510     573      86     567     561     555     600      84
     567     561     564     606      84     564     558     552     597      84
     564     561     555     600      84     561     564     558     603      84
     555     549     552     597      84     555     561     564     606      84
     552     549     555     600      84     552     558     564     606      84
     549     552     558     603      84     546     540     549     555      87
     546     540     549     552      87     540     534     531     543      20
     540     549     555     600      84     540     549     552     597      84
     537     534     531     543      26     537     534    -531     543      20
     537     534     540     546      26     537     534    -540     546      20
     531     534     540     546      20     525     519     528     588      89
     525     519     528     591      89     525     519     528     594      89
     522     519     528     588      89     522     519     528     591      89
     522     519     528     594      89     516     513     510     573       1
     513     510     507     570      86     510     513     516     582       2
     510     513     516     585       2     507     510     513     576       1
     507     510     513     579       1     504     501     516     582      22
     504     501     516     585      22     504     507     510     573      86
     501     498     531     543      96     501     504     507     570      97
     501     516     513     576       2     501     516     513     579       2
     498     501     516     582      22     498     501     516     585      22
     495     498     531     543      96     492     504     507     570      97
     492     519     528     588      89     492     519     528     591      89
     492     519     528     594      89     426     438    -432    -435     102
     360     372    -366    -369     102     318     327    -324    -330     102
     270     279    -276    -282     102     171     183    -177    -180     102
     120     129    -126    -132     102     150     159    -153    -156     102
     153     165    -159    -162     104     147     159    -165    -168     102
      90      99     -96    -102     102      33      42     -39     -45     102
     558     561    -564    -606     102     552     564    -558    -603     102
     549     561    -555    -600     102     549     558    -552    -597     102
     534     549    -540    -546     102     534     498    -531    -543     102
     513     507    -510    -573     102     510     504    -507    -570     103
%FLAG DIHEDRALS_WITHOUT_HYDROGEN
%FORMAT(10I8)
     453     444     438     432       3     453     444    -438     432       4
     453     444    -438     432       5     453     444    -438     432       6
     459     453     444     438       9     459     453    -444     438      10
     459     453    -444     438      11     459     453    -444     438      12
     471     453     444     438       9     471     453    -444     438      10
     471     453    -444     438      11     471     453    -444     438      12
     483     438     444     453      13     483     438    -444     453      14
     483     438    -444     453       5     483     438    -444     453      15
     486     483     438     432       1     486     483     438     444       1
     489     483     438     432       1     489     483     438     444       1
     366     372     426     432      16     366     372    -426     432      17
     366     372    -426     432      18     366     372    -426     432      19
     372     426     432     438      20     378     372     426     432      21
     378     372    -426     432       1     378     372    -426     432      22
     378     372    -426     432      19     387     378     372     366       2
     396     387     378     372      23     396     387    -378     372      24
     396     387    -378     372      25     405     396     387     378      23
     405     396    -387     378      24     405     396    -387     378      25
     414     405     396     387       2     426     372     378     387       2
     426     432     438     444      26     426     432    -438     444      27
     426     432    -438     444      28     426     432    -438     444      19
     426     432     438     483      21     426     432    -438     483      29
     426     432    -438     483      30     426     432    -438     483      19
     429     426     372     366       1     429     426     372     378       1
     429     426     432     438      20     324     330     360     366      16
     324     330    -360     366      17     324     330    -360     366      18
     324     330    -360     366      19     330     360     366     372      20
     336     330     360     366      21     336     330    -360     366       1
     336     330    -360     366      22     336     330    -360     366      19
     342     336     330     324      31     342     336    -330     324      32
     342     336    -330     324      33     342     336    -330     324      34
     354     336     330     324      35     354     336    -330     324      36
     354     336    -330     324      37     354     336    -330     324      38
     360     330     336     342      48     360     330    -336     342      49
     360     330    -336     342      33     360     330    -336     342      50
     360     330     336     354      51     360     330    -336     354      52
     360     330    -336     354      37     360     330    -336     354      53
     360     366     372     378      21     360     366    -372     378       1
     360     366    -372     378      22     360     366    -372     378      19
     360     366     372     426      21     360     366    -372     426       1
     360     366    -372     426      22     360     366    -372     426      19
     363     360     330     324       1     363     360     330     336       1
     363     360     366     372      20     276     282     318     324      16
     276     282    -318     324      17     276     282    -318     324      18
     276     282    -318     324      19     282     318     324     330      20
     288     282     318     324      21     288     282    -318     324       1
     288     282    -318     324      22     288     282    -318     324      19
     294     288     282     276      31     294     288    -282     276      32
     294     288    -282     276      33     294     288    -282     276      34
     306     288     282     276      31     306     288    -282     276      32
     306     288    -282     276      33     306     288    -282     276      34
     318     282     288     294      48     318     282    -288     294      49
     318     282    -288     294      33     318     282    -288     294      50
     318     282     288     306      48     318     282    -288     306      49
     318     282    -288     306      33     318     282    -288     306      50
     318     324     330     336      21     318     324    -330     336       1
     318     324    -330     336      22     318     324    -330     336      19
     318     324     330     360      21     318     324    -330     360       1
     318     324    -330     360      22     318     324    -330     360      19
     321     318     282     276       1     321     318     282     288       1
     321     318     324     330      20     213     225     270     276       1
     225     270     276     282      20     231     225     270     276      54
     231     225    -270     276      55     231     225    -270     276      56
     231     225    -270     276      19     240     231     225     213       3
     240     231    -225     213       4     240     231    -225     213       5
     240     231    -225     213       6     246     240     231     225       9
     246     240    -231     225      10     246     240    -231     225      11
     246     240    -231     225      12     258     240     231     225       9
     258     240    -231     225      10     258     240    -231     225      11
     258     240    -231     225      12     270     225     231     240      13
     270     225    -231     240      14     270     225    -231     240       5
     270     225    -231     240      15     270     276     282     288      21
     270     276    -282     288       1     270     276    -282     288      22
     270     276    -282     288      19     270     276     282     318      21
     270     276    -282     318       1     270     276    -282     318      22
     270     276    -282     318      19     273     270     225     213       1
     273     270     225     231       1     273     270     276     282      20
     198     189     183     177      57     198     189    -183     177      58
     198     189    -183     177      59     198     189    -183     177      60
     204     183     189     198      65     204     183    -189     198      66
     204     183    -189     198      59     204     183    -189     198      67
     207     204     183     177       1     207     204     183     189       1
     210     204     183     177       1     210     204     183     189       1
     126     132     171     177      16     126     132    -171     177      17
     126     132    -171     177      18     126     132    -171     177      19
     132     171     177     183      20     138     132     171     177      21
     138     132    -171     177       1     138     132    -171     177      22
     138     132    -171     177      19     147     138     132     126      68
     147     138    -132     126      69     147     138    -132     126      70
     147     138    -132     126      71     150     147     138     132      72
     150     147    -138     132      73     150     147    -138     132      74
     150     147    -138     132      75     153     150     147     138      76
     153     159    -165     147      77     159     153    -150     147      78
     159     165     147     138      79     159     165    -147     150      79
     165     147     138     132       1     165     147    -150     153      76
     165     159    -153     150      80     171     132     138     147      81
     171     132    -138     147      82     171     132    -138     147      70
     171     132    -138     147      83     171     177     183     189      26
     171     177    -183     189      27     171     177    -183     189      28
     171     177    -183     189      19     171     177     183     204      21
     171     177    -183     204      29     171     177    -183     204      30
     171     177    -183     204      19     174     171     132     126       1
     174     171     132     138       1     174     171     177     183      20
      96     102     120     126      16      96     102    -120     126      17
      96     102    -120     126      18      96     102    -120     126      19
     102     120     126     132      20     108     102     120     126      21
     108     102    -120     126       1     108     102    -120     126      22
     108     102    -120     126      19     120     126     132     138      21
     120     126    -132     138       1     120     126    -132     138      22
     120     126    -132     138      19     120     126     132     171      21
     120     126    -132     171       1     120     126    -132     171      22
     120     126    -132     171      19     123     120     102      96       1
     123     120     102     108       1     123     120     126     132      20
      39      45      90      96      16      39      45     -90      96      17
      39      45     -90      96      18      39      45     -90      96      19
      45      90      96     102      20      51      45      90      96      21
      51      45     -90      96       1      51      45     -90      96      22
      51      45     -90      96      19      60      51      45      39       3
      60      51     -45      39       4      60      51     -45      39       5
      60      51     -45      39       6      66      60      51      45       9
      66      60     -51      45      10      66      60     -51      45      11
      66      60     -51      45      12      78      60      51      45       9
      78      60     -51      45      10      78      60     -51      45      11
      78      60     -51      45      12      90      45      51      60      13
      90      45     -51      60      14      90      45     -51      60       5
      90      45     -51      60      15      90      96     102     108      21
      90      96    -102     108       1      90      96    -102     108      22
      90      96    -102     108      19      90      96     102     120      21
      90      96    -102     120       1      90      96    -102     120      22
      90      96    -102     120      19      93      90      45      39       1
      93      90      45      51       1      93      90      96     102      20
       0      12      33      39       1      12      33      39      45      20
      18      12      33      39      54      18      12     -33      39      55
      18      12     -33      39      56      18      12     -33      39      19
       0      12      18      27      57       0      12     -18      27      58
       0      12     -18      27      59       0      12     -18      27      60
      33      12      18      27      65      33      12     -18      27      66
      33      12     -18      27      59      33      12     -18      27      67
      33      39      45      51      21      33      39     -45      51       1
      33      39     -45      51      22      33      39     -45      51      19
      33      39      45      90      21      33      39     -45      90       1
      33      39     -45      90      22      33      39     -45      90      19
       0      12      33      36       1      36      33      12      18       1
      36      33      39      45      20     558     564     561     567      84
     555     549     552     558      84     555     561    -564     558      84
     552     549     555     561      84     552     558    -564     561      84
     549     555     561     567      84     549     555     561     564      84
     549     552    -558     564      84     540     549     555     561      84
     540     549     552     558      84     537     534     540     549      20
     534     540     549     555      88     534     540     549     552      88
     531     534     540     549      20     516     501     498     531      90
     507     504     492     519      90     507     504     501     516      90
     507     510    -513     516       1     504     492     519     525      91
     504     492     519     528      92     504     492    -519     528      93
     504     492    -519     528      94     504     492     519     522      91
     504     501     498     531      90     504     501     516     513      95
     504     507    -510     513      86     501     498     531     534      96
     501     504     492     519      90     501     504     507     510      85
     501     516    -513     510       2     498     495    -492     504      98
     498     495     492     519      99     498     531     534     537      20
     498     531     534     540     100     498     501     504     507      90
     498     501     516     513      95     495     492    -504     501      90
     495     492     504     507      90     495     492     519     525      91
     495     492     519     528      91     495     492     519     522      91
     495     498     531     534      96     495     498    -501     504      90
     495     498     501     516      90     492     495     498     531      99
     492     495    -498     501     101     492     495    -498     501      17
     492     495    -498     501      22     492     504    -501     498      90
     492     504     501     516      90     492     504     507     510      85
     438     486    -483    -489     103     372     432    -426    -429     103
     330     366    -360    -363     103     282     324    -318    -321     103
     225     276    -270    -273     103     183     207    -204    -210     103
     138     165    -147    -150     102     132     177    -171    -174     103
     102     126    -120    -123     103      45      96     -90     -93     103
      12      39     -33     -36     103     555     564    -561    -567     102
     552     555    -549    -540     103     531     540    -534    -537     103
     492     501    -504    -507     103     516     498    -501    -504     103
     501     531    -498    -495     103     504     495    -492    -519     103
%FLAG EXCLUDED_ATOMS_LIST
%FORMAT(10I8)
       2       3       4       5       6       7       8       9      10      12
      13      14       3       4       5       6       7      12       4       5
       6       7      12       5       6       7      12       6       7       8
       9      10      11      12      13      14      15      16       7       8
       9      10      12      13      14       8       9      10      11      12
      13      14       9      10      11      12      10      11      12      11
      12       0      13      14      15      16      17      18      31      14
      15      16      15      16      17      18      19      20      21      31
      32      33      16      17      18      31      17      18      19      20
      21      22      23      27      31      32      33      34      35      18
      19      20      21      31      32      33      19      20      21      22
      23      24      25      26      27      28      29      30      31      32
      33      20      21      22      23      27      31      21      22      23
      27      31      22      23      24      25      26      27      28      29
      30      31      23      24      25      26      27      28      29      30
      24      25      26      27      28      29      30      25      26      27
      26      27      27      28      29      30      29      30      30       0
      32      33      34      35      36      37      41      33      34      35
      34      35      36      37      38      39      40      41      42      43
      35      36      37      41      36      37      38      39      40      41
      42      43      44      45      37      38      39      40      41      42
      43      38      39      40      41      42      43      39      40      41
      40      41      41      42      43      44      45      46      47      58
      43      44      45      44      45      46      47      48      49      50
      58      59      60      45      46      47      58      46      47      48
      49      50      51      56      58      59      60      61      62      47
      48      49      50      58      59      60      48      49      50      51
      52      54      56      57      58      59      60      49      50      51
      56      58      50      51      56      58      51      52      53      54
      55      56      57      58      52      53      54      55      56      57
      53      54      55      56      57      54      55      56      55      56
      57      56      57      57       0      59      60      61      62      63
      64      69      60      61      62      61      62      63      64      65
      66      67      69      70      71      62      63      64      69      63
      64      65      66      67      68      69      70      71      64      65
      66      67      69      70      71      65      66      67      68      69
      70      71      66      67      68      69      67      68      69      68
      69       0      70      71      71       0      73      74      75      76
      77      78      79      80      81      91      92      93      74      75
      76      77      78      91      75      76      77      78      91      76
      77      78      91      77      78      79      80      81      82      83
      87      91      92      93      94      95      78      79      80      81
      91      92      93      79      80      81      82      83      84      85
      86      87      88      89      90      91      92      93      80      81
      82      83      87      91      81      82      83      87      91      82
      83      84      85      86      87      88      89      90      91      83
      84      85      86      87      88      89      90      84      85      86
      87      88      89      90      85      86      87      86      87      87
      88      89      90      89      90      90       0      92      93      94
      95      96      97     107      93      94      95      94      95      96
      97      98      99     103     107     108     109      95      96      97
     107      96      97      98      99     100     101     102     103     104
     105     106     107     108     109     110     111      97      98      99
     103     107     108     109      98      99     100     101     102     103
     104     105     106     107     108     109      99     100     101     102
     103     104     105     106     107     100     101     102     103     104
     105     106     107     101     102     103     102     103     103     104
     105     106     107     105     106     106       0     108     109     110
     111     112     113     121     109     110     111     110     111     112
     113     114     115     119     121     122     123     111     112     113
     121     112     113     114     115     116     117     118     119     120
     121     122     123     124     125     113     114     115     119     121
     122     123     114     115     116     117     118     119     120     121
     122     123     115     116     117     118     119     120     121     116
     117     118     119     120     121     117     118     119     118     119
     119     120     121       0     122     123     124     125     126     127
     143     123     124     125     124     125     126     127     128     129
     130     143     144     145     125     126     127     143     126     127
     128     129     130     131     132     133     143     144     145     146
     147     127     128     129     130     143     144     145     128     129
     130     131     132     133     134     135     136     143     144     145
     129     130     131     132     133     143     130     131     132     133
     143     131     132     133     134     135     136     137     138     139
     143     132     133     134     135     136     133     134     135     136
     134     135     136     137     138     139     140     141     142     135
     136     137     138     139     136     137     138     139     137     138
     139     140     141     142     138     139     140     141     142     139
     140     141     142     140     141     142     141     142     142       0
     144     145     146     147     148     149     162     145     146     147
     146     147     148     149     150     151     152     162     163     164
     147     148     149     162     148     149     150     151     152     153
     154     158     162     163     164     149     150     151     152     162
     163     164     150     151     152     153     154     155     156     157
     158     159     160     161     162     163     164     151     152     153
     154     158     162     152     153     154     158     162     153     154
     155     156     157     158     159     160     161     162     154     155
     156     157     158     159     160     161     155     156     157     158
     159     160     161     156     157     158     157     158     158     159
     160     161     160     161     161       0     163     164     164       0
     166     167     168     169     170     171     173     174     175     176
     177     178     191     197     198     199     167     168     169     170
     173     174     175     176     177     178     179     182     168     169
     170     172     173     174     178     179     180     181     182     195
     196     169     170     171     172     173     174     178     179     182
     191     193     194     195     196     170     171     172     173     174
     175     176     177     178     191     192     195     196     171     172
     173     174     191     192     193     194     172     173     191     192
     193     194     195     196     173     191     192     193     194     195
     196     178     192     193     194     195     196     175     176     177
     197     198     199     176     177     197     198     199     177     197
     198     199     197     198     199     179     180     181     182     183
     184     180     181     182     183     184     185     186     181     182
     183     184     182     183     184     185     186     187     188     200
     201       0     184     185     186     185     186     187     188     189
     190     200     201     202     186     187     188     189     200     201
     202     203     187     188     189     190     200     201     203     188
     189     190     200     202     203     189     190     201     202     203
     190     200     201     202     203     201     203     192     193     194
     194     195     196     195     196     196       0     198     199     199
       0     202       0     203       0       0       0       0       0       0
       0       0       0       0       0       0       0       0       0       0
     220     221     222     221     222     222       0     224     225     226
     225     226     226       0     228     229     230     229     230     230
       0     232     233     234     233     234     234       0     236     237
     238     237     238     238       0     240     241     242     241     242
     242       0     244     245     246     245     246     246       0     248
     249     250     249     250     250       0     252     253     254     253
     254     254       0     256     257     258     257     258     258       0
     260     261     262     261     262     262       0     264     265     266
     265     266     266       0     268     269     270     269     270     270
       0     272     273     274     273     274     274       0     276     277
     278     277     278     278       0     280     281     282     281     282
     282       0     284     285     286     285     286     286       0     288
     289     290     289     290     290       0     292     293     294     293
     294     294       0     296     297     298     297     298     298       0
     300     301     302     301     302     302       0     304     305     306
     305     306     306       0     308     309     310     309     310     310
       0     312     313     314     313     314     314       0     316     317
     318     317     318     318       0     320     321     322     321     322
     322       0     324     325     326     325     326     326       0     328
     329     330     329     330     330       0     332     333     334     333
     334     334       0     336     337     338     337     338     338       0
     340     341     342     341     342     342       0     344     345     346
     345     346     346       0     348     349     350     349     350     350
       0     352     353     354     353     354     354       0     356     357
     358     357     358     358       0     360     361     362     361     362
     362       0     364     365     366     365     366     366       0     368
     369     370     369     370     370       0     372     373     374     373
     374     374       0     376     377     378     377     378     378       0
     380     381     382     381     382     382       0     384     385     386
     385     386     386       0     388     389     390     389     390     390
       0     392     393     394     393     394     394       0     396     397
     398     397     398     398       0     400     401     402     401     402
     402       0     404     405     406     405     406     406       0     408
     409     410     409     410     410       0     412     413     414     413
     414     414       0     416     417     418     417     418     418       0
     420     421     422     421     422     422       0     424     425     426
     425     426     426       0     428     429     430     429     430     430
       0     432     433     434     433     434     434       0     436     437
     438     437     438     438       0     440     441     442     441     442
     442       0     444     445     446     445     446     446       0     448
     449     450     449     450     450       0     452     453     454     453
     454     454       0     456     457     458     457     458     458       0
     460     461     462     461     462     462       0     464     465     466
     465     466     466       0     468     469     470     469     470     470
       0     472     473     474     473     474     474       0     476     477
     478     477     478     478       0     480     481     482     481     482
     482       0     484     485     486     485     486     486       0     488
     489     490     489     490     490       0     492     493     494     493
     494     494       0     496     497     498     497     498     498       0
     500     501     502     501     502     502       0     504     505     506
     505     506     506       0     508     509     510     509     510     510
       0     512     513     514     513     514     514       0     516     517
     518     517     518     518       0     520     521     522     521     522
     522       0     524     525     526     525     526     526       0     528
     529     530     529     530     530       0     532     533     534     533
     534     534       0     536     537     538     537     538     538       0
     540     541     542     541     542     542       0     544     545     546
     545     546     546       0     548     549     550     549     550     550
       0     552     553     554     553     554     554       0     556     557
     558     557     558     558       0     560     561     562     561     562
     562       0     564     565     566     565     566     566       0     568
     569     570     569     570     570       0     572     573     574     573
     574     574       0     576     577     578     577     578     578       0
     580     581     582     581     582     582       0     584     585     586
     585     586     586       0     588     589     590     589     590     590
       0     592     593     594     593     594     594       0     596     597
     598     597     598     598       0     600     601     602     601     602
     602       0     604     605     606     605     606     606       0     608
     609     610     609     610     610       0     612     613     614     613
     614     614       0     616     617     618     617     618     618       0
     620     621     622     621     622     622       0     624     625     626
     625     626     626       0     628     629     630     629     630     630
       0     632     633     634     633     634     634       0     636     637
     638     637     638     638       0     640     641     642     641     642
     642       0     644     645     646     645     646     646       0     648
     649     650     649     650     650       0     652     653     654     653
     654     654       0     656     657     658     657     658     658       0
     660     661     662     661     662     662       0     664     665     666
     665     666     666       0     668     669     670     669     670     670
       0     672     673     674     673     674     674       0     676     677
     678     677     678     678       0     680     681     682     681     682
     682       0     684     685     686     685     686     686       0     688
     689     690     689     690     690       0     692     693     694     693
     694     694       0     696     697     698     697     698     698       0
     700     701     702     701     702     702       0     704     705     706
     705     706     706       0     708     709     710     709     710     710
       0     712     713     714     713     714     714       0     716     717
     718     717     718     718       0     720     721     722     721     722
     722       0     724     725     726     725     726     726       0     728
     729     730     729     730     730       0     732     733     734     733
     734     734       0     736     737     738     737     738     738       0
     740     741     742     741     742     742       0     744     745     746
     745     746     746       0     748     749     750     749     750     750
       0     752     753     754     753     754     754       0     756     757
     758     757     758     758       0     760     761     762     761     762
     762       0     764     765     766     765     766     766       0     768
     769     770     769     770     770       0     772     773     774     773
     774     774       0     776     777     778     777     778     778       0
     780     781     782     781     782     782       0     784     785     786
     785     786     786       0     788     789     790     789     790     790
       0     792     793     794     793     794     794       0     796     797
     798     797     798     798       0     800     801     802     801     802
     802       0     804     805     806     805     806     806       0     808
     809     810     809     810     810       0     812     813     814     813
     814     814       0     816     817     818     817     818     818       0
     820     821     822     821     822     822       0     824     825     826
     825     826     826       0     828     829     830     829     830     830
       0     832     833     834     833     834     834       0     836     837
     838     837     838     838       0     840     841     842     841     842
     842       0     844     845     846     845     846     846       0     848
     849     850     849     850     850       0     852     853     854     853
     854     854       0     856     857     858     857     858     858       0
     860     861     862     861     862     862       0     864     865     866
     865     866     866       0     868     869     870     869     870     870
       0     872     873     874     873     874     874       0     876     877
     878     877     878     878       0     880     881     882     881     882
     882       0     884     885     886     885     886     886       0     888
     889     890     889     890     890       0     892     893     894     893
     894     894       0     896     897     898     897     898     898       0
     900     901     902     901     902     902       0     904     905     906
     905     906     906       0     908     909     910     909     910     910
       0     912     913     914     913     914     914       0     916     917
     918     917     918     918       0     920     921     922     921     922
     922       0     924     925     926     925     926     926       0     928
     929     930     929     930     930       0     932     933     934     933
     934     934       0     936     937     938     937     938     938       0
     940     941     942     941     942     942       0     944     945     946
     945     946     946       0     948     949     950     949     950     950
       0     952     953     954     953     954     954       0     956     957
     958     957     958     958       0     960     961     962     961     962
     962       0     964     965     966     965     966     966       0     968
     969     970     969     970     970       0     972     973     974     973
     974     974       0     976     977     978     977     978     978       0
     980     981     982     981     982     982       0     984     985     986
     985     986     986       0     988     989     990     989     990     990
       0     992     993     994     993     994     994       0     996     997
     998     997     998     998       0    1000    1001    1002    1001    1002
    1002       0    1004    1005    1006    1005    1006    1006       0    1008
    1009    1010    1009    1010    1010       0    1012    1013    1014    1013
    1014    1014       0    1016    1017    1018    1017    1018    1018       0
    1020    1021    1022    1021    1022    1022       0    1024    1025    1026
    1025    1026    1026       0    1028    1029    1030    1029    1030    1030
       0    1032    1033    1034    1033    1034    1034       0    1036    1037
    1038    1037    1038    1038       0    1040    1041    1042    1041    1042
    1042       0    1044    1045    1046    1045    1046    1046       0    1048
    1049    1050    1049    1050    1050       0    1052    1053    1054    1053
    1054    1054       0    1056    1057    1058    1057    1058    1058       0
    1060    1061    1062    1061    1062    1062       0    1064    1065    1066
    1065    1066    1066       0    1068    1069    1070    1069    1070    1070
       0    1072    1073    1074    1073    1074    1074       0    1076    1077
    1078    1077    1078    1078       0    1080    1081    1082    1081    1082
    1082       0    1084    1085    1086    1085    1086    1086       0    1088
    1089    1090    1089    1090    1090       0    1092    1093    1094    1093
    1094    1094       0    1096    1097    1098    1097    1098    1098       0
    1100    1101    1102    1101    1102    1102       0    1104    1105    1106
    1105    1106    1106       0    1108    1109    1110    1109    1110    1110
       0    1112    1113    1114    1113    1114    1114       0    1116    1117
    1118    1117    1118    1118       0    1120    1121    1122    1121    1122
    1122       0    1124    1125    1126    1125    1126    1126       0    1128
    1129    1130    1129    1130    1130       0    1132    1133    1134    1133
    1134    1134       0    1136    1137    1138    1137    1138    1138       0
    1140    1141    1142    1141    1142    1142       0    1144    1145    1146
    1145    1146    1146       0    1148    1149    1150    1149    1150    1150
       0    1152    1153    1154    1153    1154    1154       0    1156    1157
    1158    1157    1158    1158       0    1160    1161    1162    1161    1162
    1162       0    1164    1165    1166    1165    1166    1166       0    1168
    1169    1170    1169    1170    1170       0    1172    1173    1174    1173
    1174    1174       0    1176    1177    1178    1177    1178    1178       0
    1180    1181    1182    1181    1182    1182       0    1184    1185    1186
    1185    1186    1186       0    1188    1189    1190    1189    1190    1190
       0    1192    1193    1194    1193    1194    1194       0    1196    1197
    1198    1197    1198    1198       0    1200    1201    1202    1201    1202
    1202       0    1204    1205    1206    1205    1206    1206       0    1208
    1209    1210    1209    1210    1210       0    1212    1213    1214    1213
    1214    1214       0    1216    1217    1218    1217    1218    1218       0
    1220    1221    1222    1221    1222    1222       0    1224    1225    1226
    1225    1226    1226       0    1228    1229    1230    1229    1230    1230
       0    1232    1233    1234    1233    1234    1234       0    1236    1237
    1238    1237    1238    1238       0    1240    1241    1242    1241    1242
    1242       0    1244    1245    1246    1245    1246    1246       0    1248
    1249    1250    1249    1250    1250       0    1252    1253    1254    1253
    1254    1254       0    1256    1257    1258    1257    1258    1258       0
    1260    1261    1262    1261    1262    1262       0    1264    1265    1266
    1265    1266    1266       0    1268    1269    1270    1269    1270    1270
       0    1272    1273    1274    1273    1274    1274       0    1276    1277
    1278    1277    1278    1278       0    1280    1281    1282    1281    1282
    1282       0    1284    1285    1286    1285    1286    1286       0    1288
    1289    1290    1289    1290    1290       0    1292    1293    1294    1293
    1294    1294       0    1296    1297    1298    1297    1298    1298       0
    1300    1301    1302    1301    1302    1302       0    1304    1305    1306
    1305    1306    1306       0    1308    1309    1310    1309    1310    1310
       0    1312    1313    1314    1313    1314    1314       0    1316    1317
    1318    1317    1318    1318       0    1320    1321    1322    1321    1322
    1322       0    1324    1325    1326    1325    1326    1326       0    1328
    1329    1330    1329    1330    1330       0    1332    1333    1334    1333
    1334    1334       0    1336    1337    1338    1337    1338    1338       0
    1340    1341    1342    1341    1342    1342       0    1344    1345    1346
    1345    1346    1346       0    1348    1349    1350    1349    1350    1350
       0    1352    1353    1354    1353    1354    1354       0    1356    1357
    1358    1357    1358    1358       0    1360    1361    1362    1361    1362
    1362       0    1364    1365    1366    1365    1366    1366       0    1368
    1369    1370    1369    1370    1370       0    1372    1373    1374    1373
    1374    1374       0    1376    1377    1378    1377    1378    1378       0
    1380    1381    1382    1381    1382    1382       0    1384    1385    1386
    1385    1386    1386       0    1388    1389    1390    1389    1390    1390
       0    1392    1393    1394    1393    1394    1394       0    1396    1397
    1398    1397    1398    1398       0    1400    1401    1402    1401    1402
    1402       0    1404    1405    1406    1405    1406    1406       0    1408
    1409    1410    1409    1410    1410       0    1412    1413    1414    1413
    1414    1414       0    1416    1417    1418    1417    1418    1418       0
    1420    1421    1422    1421    1422    1422       0    1424    1425    1426
    1425    1426    1426       0    1428    1429    1430    1429    1430    1430
       0    1432    1433    1434    1433    1434    1434       0    1436    1437
    1438    1437    1438    1438       0    1440    1441    1442    1441    1442
    1442       0    1444    1445    1446    1445    1446    1446       0    1448
    1449    1450    1449    1450    1450       0    1452    1453    1454    1453
    1454    1454       0    1456    1457    1458    1457    1458    1458       0
    1460    1461    1462    1461    1462    1462       0    1464    1465    1466
    1465    1466    1466       0    1468    1469    1470    1469    1470    1470
       0    1472    1473    1474    1473    1474    1474       0    1476    1477
    1478    1477    1478    1478       0    1480    1481    1482    1481    1482
    1482       0    1484    1485    1486    1485    1486    1486       0    1488
    1489    1490    1489    1490    1490       0    1492    1493    1494    1493
    1494    1494       0    1496    1497    1498    1497    1498    1498       0
    1500    1501    1502    1501    1502    1502       0    1504    1505    1506
    1505    1506    1506       0    1508    1509    1510    1509    1510    1510
       0    1512    1513    1514    1513    1514    1514       0    1516    1517
    1518    1517    1518    1518       0    1520    1521    1522    1521    1522
    1522       0    1524    1525    1526    1525    1526    1526       0    1528
    1529    1530    1529    1530    1530       0    1532    1533    1534    1533
    1534    1534       0    1536    1537    1538    1537    1538    1538       0
    1540    1541    1542    1541    1542    1542       0    1544    1545    1546
    1545    1546    1546       0    1548    1549    1550    1549    1550    1550
       0    1552    1553    1554    1553    1554    1554       0    1556    1557
    1558    1557    1558    1558       0    1560    1561    1562    1561    1562
    1562       0    1564    1565    1566    1565    1566    1566       0    1568
    1569    1570    1569    1570    1570       0    1572    1573    1574    1573
    1574    1574       0    1576    1577    1578    1577    1578    1578       0
    1580    1581    1582    1581    1582    1582       0    1584    1585    1586
    1585    1586    1586       0    1588    1589    1590    1589    1590    1590
       0    1592    1593    1594    1593    1594    1594       0    1596    1597
    1598    1597    1598    1598       0    1600    1601    1602    1601    1602
    1602       0    1604    1605    1606    1605    1606    1606       0    1608
    1609    1610    1609    1610    1610       0    1612    1613    1614    1613
    1614    1614       0    1616    1617    1618    1617    1618    1618       0
    1620    1621    1622    1621    1622    1622       0    1624    1625    1626
    1625    1626    1626       0    1628    1629    1630    1629    1630    1630
       0    1632    1633    1634    1633    1634    1634       0    1636    1637
    1638    1637    1638    1638       0    1640    1641    1642    1641    1642
    1642       0    1644    1645    1646    1645    1646    1646       0    1648
    1649    1650    1649    1650    1650       0    1652    1653    1654    1653
    1654    1654       0    1656    1657    1658    1657    1658    1658       0
    1660    1661    1662    1661    1662    1662       0    1664    1665    1666
    1665    1666    1666       0    1668    1669    1670    1669    1670    1670
       0    1672    1673    1674    1673    1674    1674       0    1676    1677
    1678    1677    1678    1678       0    1680    1681    1682    1681    1682
    1682       0    1684    1685    1686    1685    1686    1686       0    1688
    1689    1690    1689    1690    1690       0    1692    1693    1694    1693
    1694    1694       0    1696    1697    1698    1697    1698    1698       0
    1700    1701    1702    1701    1702    1702       0    1704    1705    1706
    1705    1706    1706       0    1708    1709    1710    1709    1710    1710
       0    1712    1713    1714    1713    1714    1714       0    1716    1717
    1718    1717    1718    1718       0    1720    1721    1722    1721    1722
    1722       0    1724    1725    1726    1725    1726    1726       0    1728
    1729    1730    1729    1730    1730       0    1732    1733    1734    1733
    1734    1734       0    1736    1737    1738    1737    1738    1738       0
    1740    1741    1742    1741    1742    1742       0    1744    1745    1746
    1745    1746    1746       0    1748    1749    1750    1749    1750    1750
       0    1752    1753    1754    1753    1754    1754       0    1756    1757
    1758    1757    1758    1758       0    1760    1761    1762    1761    1762
    1762       0    1764    1765    1766    1765    1766    1766       0    1768
    1769    1770    1769    1770    1770       0    1772    1773    1774    1773
    1774    1774       0    1776    1777    1778    1777    1778    1778       0
    1780    1781    1782    1781    1782    1782       0    1784    1785    1786
    1785    1786    1786       0    1788    1789    1790    1789    1790    1790
       0    1792    1793    1794    1793    1794    1794       0    1796    1797
    1798    1797    1798    1798       0    1800    1801    1802    1801    1802
    1802       0    1804    1805    1806    1805    1806    1806       0    1808
    1809    1810    1809    1810    1810       0    1812    1813    1814    1813
    1814    1814       0    1816    1817    1818    1817    1818    1818       0
    1820    1821    1822    1821    1822    1822       0    1824    1825    1826
    1825    1826    1826       0    1828    1829    1830    1829    1830    1830
       0    1832    1833    1834    1833    1834    1834       0    1836    1837
    1838    1837    1838    1838       0    1840    1841    1842    1841    1842
    1842       0    1844    1845    1846    1845    1846    1846       0    1848
    1849    1850    1849    1850    1850       0    1852    1853    1854    1853
    1854    1854       0    1856    1857    1858    1857    1858    1858       0
    1860    1861    1862    1861    1862    1862       0    1864    1865    1866
    1865    1866    1866       0    1868    1869    1870    1869    1870    1870
       0    1872    1873    1874    1873    1874    1874       0    1876    1877
    1878    1877    1878    1878       0    1880    1881    1882    1881    1882
    1882       0    1884    1885    1886    1885    1886    1886       0    1888
    1889    1890    1889    1890    1890       0    1892    1893    1894    1893
    1894    1894       0    1896    1897    1898    1897    1898    1898       0
    1900    1901    1902    1901    1902    1902       0    1904    1905    1906
    1905    1906    1906       0    1908    1909    1910    1909    1910    1910
       0    1912    1913    1914    1913    1914    1914       0    1916    1917
    1918    1917    1918    1918       0    1920    1921    1922    1921    1922
    1922       0    1924    1925    1926    1925    1926    1926       0    1928
    1929    1930    1929    1930    1930       0    1932    1933    1934    1933
    1934    1934       0    1936    1937    1938    1937    1938    1938       0
    1940    1941    1942    1941    1942    1942       0    1944    1945    1946
    1945    1946    1946       0    1948    1949    1950    1949    1950    1950
       0    1952    1953    1954    1953    1954    1954       0    1956    1957
    1958    1957    1958    1958       0    1960    1961    1962    1961    1962
    1962       0    1964    1965    1966    1965    1966    1966       0    1968
    1969    1970    1969    1970    1970       0    1972    1973    1974    1973
    1974    1974       0    1976    1977    1978    1977    1978    1978       0
    1980    1981    1982    1981    1982    1982       0    1984    1985    1986
    1985    1986    1986       0    1988    1989    1990    1989    1990    1990
       0    1992    1993    1994    1993    1994    1994       0    1996    1997
    1998    1997    1998    1998       0    2000    2001    2002    2001    2002
    2002       0    2004    2005    2006    2005    2006    2006       0    2008
    2009    2010    2009    2010    2010       0    2012    2013    2014    2013
    2014    2014       0    2016    2017    2018    2017    2018    2018       0
    2020    2021    2022    2021    2022    2022       0    2024    2025    2026
    2025    2026    2026       0    2028    2029    2030    2029    2030    2030
       0    2032    2033    2034    2033    2034    2034       0    2036    2037
    2038    2037    2038    2038       0    2040    2041    2042    2041    2042
    2042       0    2044    2045    2046    2045    2046    2046       0    2048
    2049    2050    2049    2050    2050       0    2052    2053    2054    2053
    2054    2054       0    2056    2057    2058    2057    2058    2058       0
    2060    2061    2062    2061    2062    2062       0    2064    2065    2066
    2065    2066    2066       0    2068    2069    2070    2069    2070    2070
       0    2072    2073    2074    2073    2074    2074       0    2076    2077
    2078    2077    2078    2078       0    2080    2081    2082    2081    2082
    2082       0    2084    2085    2086    2085    2086    2086       0    2088
    2089    2090    2089    2090    2090       0    2092    2093    2094    2093
    2094    2094       0    2096    2097    2098    2097    2098    2098       0
    2100    2101    2102    2101    2102    2102       0    2104    2105    2106
    2105    2106    2106       0    2108    2109    2110    2109    2110    2110
       0    2112    2113    2114    2113    2114    2114       0    2116    2117
    2118    2117    2118    2118       0    2120    2121    2122    2121    2122
    2122       0    2124    2125    2126    2125    2126    2126       0    2128
    2129    2130    2129    2130    2130       0    2132    2133    2134    2133
    2134    2134       0    2136    2137    2138    2137    2138    2138       0
    2140    2141    2142    2141    2142    2142       0    2144    2145    2146
    2145    2146    2146       0    2148    2149    2150    2149    2150    2150
       0    2152    2153    2154    2153    2154    2154       0    2156    2157
    2158    2157    2158    2158       0    2160    2161    2162    2161    2162
    2162       0    2164    2165    2166    2165    2166    2166       0    2168
    2169    2170    2169    2170    2170       0    2172    2173    2174    2173
    2174    2174       0    2176    2177    2178    2177    2178    2178       0
    2180    2181    2182    2181    2182    2182       0    2184    2185    2186
    2185    2186    2186       0    2188    2189    2190    2189    2190    2190
       0    2192    2193    2194    2193    2194    2194       0    2196    2197
    2198    2197    2198    2198       0    2200    2201    2202    2201    2202
    2202       0    2204    2205    2206    2205    2206    2206       0    2208
    2209    2210    2209    2210    2210       0    2212    2213    2214    2213
    2214    2214       0    2216    2217    2218    2217    2218    2218       0
    2220    2221    2222    2221    2222    2222       0    2224    2225    2226
    2225    2226    2226       0    2228    2229    2230    2229    2230    2230
       0    2232    2233    2234    2233    2234    2234       0    2236    2237
    2238    2237    2238    2238       0    2240    2241    2242    2241    2242
    2242       0    2244    2245    2246    2245    2246    2246       0    2248
    2249    2250    2249    2250    2250       0    2252    2253    2254    2253
    2254    2254       0    2256    2257    2258    2257    2258    2258       0
    2260    2261    2262    2261    2262    2262       0    2264    2265    2266
    2265    2266    2266       0    2268    2269    2270    2269    2270    2270
       0    2272    2273    2274    2273    2274    2274       0    2276    2277
    2278    2277    2278    2278       0    2280    2281    2282    2281    2282
    2282       0    2284    2285    2286    2285    2286    2286       0    2288
    2289    2290    2289    2290    2290       0    2292    2293    2294    2293
    2294    2294       0    2296    2297    2298    2297    2298    2298       0
    2300    2301    2302    2301    2302    2302       0    2304    2305    2306
    2305    2306    2306       0    2308    2309    2310    2309    2310    2310
       0    2312    2313    2314    2313    2314    2314       0    2316    2317
    2318    2317    2318    2318       0    2320    2321    2322    2321    2322
    2322       0    2324    2325    2326    2325    2326    2326       0    2328
    2329    2330    2329    2330    2330       0    2332    2333    2334    2333
    2334    2334       0    2336    2337    2338    2337    2338    2338       0
    2340    2341    2342    2341    2342    2342       0    2344    2345    2346
    2345    2346    2346       0    2348    2349    2350    2349    2350    2350
       0    2352    2353    2354    2353    2354    2354       0    2356    2357
    2358    2357    2358    2358       0    2360    2361    2362    2361    2362
    2362       0    2364    2365    2366    2365    2366    2366       0    2368
    2369    2370    2369    2370    2370       0    2372    2373    2374    2373
    2374    2374       0    2376    2377    2378    2377    2378    2378       0
    2380    2381    2382    2381    2382    2382       0    2384    2385    2386
    2385    2386    2386       0    2388    2389    2390    2389    2390    2390
       0    2392    2393    2394    2393    2394    2394       0    2396    2397
    2398    2397    2398    2398       0    2400    2401    2402    2401    2402
    2402       0    2404    2405    2406    2405    2406    2406       0    2408
    2409    2410    2409    2410    2410       0    2412    2413    2414    2413
    2414    2414       0    2416    2417    2418    2417    2418    2418       0
    2420    2421    2422    2421    2422    2422       0    2424    2425    2426
    2425    2426    2426       0    2428    2429    2430    2429    2430    2430
       0    2432    2433    2434    2433    2434    2434       0    2436    2437
    2438    2437    2438    2438       0    2440    2441    2442    2441    2442
    2442       0    2444    2445    2446    2445    2446    2446       0    2448
    2449    2450    2449    2450    2450       0    2452    2453    2454    2453
    2454    2454       0    2456    2457    2458    2457    2458    2458       0
    2460    2461    2462    2461    2462    2462       0    2464    2465    2466
    2465    2466    2466       0    2468    2469    2470    2469    2470    2470
       0    2472    2473    2474    2473    2474    2474       0    2476    2477
    2478    2477    2478    2478       0    2480    2481    2482    2481    2482
    2482       0    2484    2485    2486    2485    2486    2486       0    2488
    2489    2490    2489    2490    2490       0    2492    2493    2494    2493
    2494    2494       0    2496    2497    2498    2497    2498    2498       0
    2500    2501    2502    2501    2502    2502       0    2504    2505    2506
    2505    2506    2506       0    2508    2509    2510    2509    2510    2510
       0    2512    2513    2514    2513    2514    2514       0    2516    2517
    2518    2517    2518    2518       0    2520    2521    2522    2521    2522
    2522       0    2524    2525    2526    2525    2526    2526       0    2528
    2529    2530    2529    2530    2530       0    2532    2533    2534    2533
    2534    2534       0    2536    2537    2538    2537    2538    2538       0
    2540    2541    2542    2541    2542    2542       0    2544    2545    2546
    2545    2546    2546       0    2548    2549    2550    2549    2550    2550
       0    2552    2553    2554    2553    2554    2554       0    2556    2557
    2558    2557    2558    2558       0    2560    2561    2562    2561    2562
    2562       0    2564    2565    2566    2565    2566    2566       0    2568
    2569    2570    2569    2570    2570       0    2572    2573    2574    2573
    2574    2574       0    2576    2577    2578    2577    2578    2578       0
    2580    2581    2582    2581    2582    2582       0    2584    2585    2586
    2585    2586    2586       0    2588    2589    2590    2589    2590    2590
       0    2592    2593    2594    2593    2594    2594       0    2596    2597
    2598    2597    2598    2598       0    2600    2601    2602    2601    2602
    2602       0    2604    2605    2606    2605    2606    2606       0    2608
    2609    2610    2609    2610    2610       0    2612    2613    2614    2613
    2614    2614       0    2616    2617    2618    2617    2618    2618       0
    2620    2621    2622    2621    2622    2622       0    2624    2625    2626
    2625    2626    2626       0    2628    2629    2630    2629    2630    2630
       0    2632    2633    2634    2633    2634    2634       0    2636    2637
    2638    2637    2638    2638       0    2640    2641    2642    2641    2642
    2642       0    2644    2645    2646    2645    2646    2646       0    2648
    2649    2650    2649    2650    2650       0    2652    2653    2654    2653
    2654    2654       0    2656    2657    2658    2657    2658    2658       0
    2660    2661    2662    2661    2662    2662       0    2664    2665    2666
    2665    2666    2666       0    2668    2669    2670    2669    2670    2670
       0    2672    2673    2674    2673    2674    2674       0    2676    2677
    2678    2677    2678    2678       0    2680    2681    2682    2681    2682
    2682       0    2684    2685    2686    2685    2686    2686       0    2688
    2689    2690    2689    2690    2690       0    2692    2693    2694    2693
    2694    2694       0    2696    2697    2698    2697    2698    2698       0
    2700    2701    2702    2701    2702    2702       0    2704    2705    2706
    2705    2706    2706       0    2708    2709    2710    2709    2710    2710
       0    2712    2713    2714    2713    2714    2714       0    2716    2717
    2718    2717    2718    2718       0    2720    2721    2722    2721    2722
    2722       0    2724    2725    2726    2725    2726    2726       0    2728
    2729    2730    2729    2730    2730       0    2732    2733    2734    2733
    2734    2734       0    2736    2737    2738    2737    2738    2738       0
    2740    2741    2742    2741    2742    2742       0    2744    2745    2746
    2745    2746    2746       0    2748    2749    2750    2749    2750    2750
       0    2752    2753    2754    2753    2754    2754       0    2756    2757
    2758    2757    2758    2758       0    2760    2761    2762    2761    2762
    2762       0    2764    2765    2766    2765    2766    2766       0    2768
    2769    2770    2769    2770    2770       0    2772    2773    2774    2773
    2774    2774       0    2776    2777    2778    2777    2778    2778       0
    2780    2781    2782    2781    2782    2782       0    2784    2785    2786
    2785    2786    2786       0    2788    2789    2790    2789    2790    2790
       0    2792    2793    2794    2793    2794    2794       0    2796    2797
    2798    2797    2798    2798       0    2800    2801    2802    2801    2802
    2802       0    2804    2805    2806    2805    2806    2806       0    2808
    2809    2810    2809    2810    2810       0    2812    2813    2814    2813
    2814    2814       0    2816    2817    2818    2817    2818    2818       0
    2820    2821    2822    2821    2822    2822       0    2824    2825    2826
    2825    2826    2826       0    2828    2829    2830    2829    2830    2830
       0    2832    2833    2834    2833    2834    2834       0    2836    2837
    2838    2837    2838    2838       0    2840    2841    2842    2841    2842
    2842       0    2844    2845    2846    2845    2846    2846       0    2848
    2849    2850    2849    2850    2850       0    2852    2853    2854    2853
    2854    2854       0    2856    2857    2858    2857    2858    2858       0
    2860    2861    2862    2861    2862    2862       0    2864    2865    2866
    2865    2866    2866       0    2868    2869    2870    2869    2870    2870
       0    2872    2873    2874    2873    2874    2874       0    2876    2877
    2878    2877    2878    2878       0    2880    2881    2882    2881    2882
    2882       0    2884    2885    2886    2885    2886    2886       0    2888
    2889    2890    2889    2890    2890       0    2892    2893    2894    2893
    2894    2894       0    2896    2897    2898    2897    2898    2898       0
    2900    2901    2902    2901    2902    2902       0    2904    2905    2906
    2905    2906    2906       0    2908    2909    2910    2909    2910    2910
       0    2912    2913    2914    2913    2914    2914       0    2916    2917
    2918    2917    2918    2918       0    2920    2921    2922    2921    2922
    2922       0    2924    2925    2926    2925    2926    2926       0    2928
    2929    2930    2929    2930    2930       0    2932    2933    2934    2933
    2934    2934       0    2936    2937    2938    2937    2938    2938       0
    2940    2941    2942    2941    2942    2942       0    2944    2945    2946
    2945    2946    2946       0    2948    2949    2950    2949    2950    2950
       0    2952    2953    2954    2953    2954    2954       0    2956    2957
    2958    2957    2958    2958       0    2960    2961    2962    2961    2962
    2962       0    2964    2965    2966    2965    2966    2966       0    2968
    2969    2970    2969    2970    2970       0    2972    2973    2974    2973
    2974    2974       0    2976    2977    2978    2977    2978    2978       0
    2980    2981    2982    2981    2982    2982       0    2984    2985    2986
    2985    2986    2986       0    2988    2989    2990    2989    2990    2990
       0    2992    2993    2994    2993    2994    2994       0    2996    2997
    2998    2997    2998    2998       0    3000    3001    3002    3001    3002
    3002       0    3004    3005    3006    3005    3006    3006       0    3008
    3009    3010    3009    3010    3010       0    3012    3013    3014    3013
    3014    3014       0    3016    3017    3018    3017    3018    3018       0
    3020    3021    3022    3021    3022    3022       0    3024    3025    3026
    3025    3026    3026       0    3028    3029    3030    3029    3030    3030
       0    3032    3033    3034    3033    3034    3034       0    3036    3037
    3038    3037    3038    3038       0    3040    3041    3042    3041    3042
    3042       0    3044    3045    3046    3045    3046    3046       0    3048
    3049    3050    3049    3050    3050       0    3052    3053    3054    3053
    3054    3054       0    3056    3057    3058    3057    3058    3058       0
    3060    3061    3062    3061    3062    3062       0    3064    3065    3066
    3065    3066    3066       0    3068    3069    3070    3069    3070    3070
       0    3072    3073    3074    3073    3074    3074       0    3076    3077
    3078    3077    3078    3078       0    3080    3081    3082    3081    3082
    3082       0    3084    3085    3086    3085    3086    3086       0    3088
    3089    3090    3089    3090    3090       0    3092    3093    3094    3093
    3094    3094       0    3096    3097    3098    3097    3098    3098       0
    3100    3101    3102    3101    3102    3102       0    3104    3105    3106
    3105    3106    3106       0    3108    3109    3110    3109    3110    3110
       0    3112    3113    3114    3113    3114    3114       0    3116    3117
    3118    3117    3118    3118       0    3120    3121    3122    3121    3122
    3122       0    3124    3125    3126    3125    3126    3126       0    3128
    3129    3130    3129    3130    3130       0    3132    3133    3134    3133
    3134    3134       0    3136    3137    3138    3137    3138    3138       0
    3140    3141    3142    3141    3142    3142       0    3144    3145    3146
    3145    3146    3146       0    3148    3149    3150    3149    3150    3150
       0    3152    3153    3154    3153    3154    3154       0    3156    3157
    3158    3157    3158    3158       0    3160    3161    3162    3161    3162
    3162       0    3164    3165    3166    3165    3166    3166       0    3168
    3169    3170    3169    3170    3170       0    3172    3173    3174    3173
    3174    3174       0    3176    3177    3178    3177    3178    3178       0
    3180    3181    3182    3181    3182    3182       0    3184    3185    3186
    3185    3186    3186       0    3188    3189    3190    3189    3190    3190
       0    3192    3193    3194    3193    3194    3194       0    3196    3197
    3198    3197    3198    3198       0    3200    3201    3202    3201    3202
    3202       0    3204    3205    3206    3205    3206    3206       0    3208
    3209    3210    3209    3210    3210       0    3212    3213    3214    3213
    3214    3214       0    3216    3217    3218    3217    3218    3218       0
    3220    3221    3222    3221    3222    3222       0    3224    3225    3226
    3225    3226    3226       0    3228    3229    3230    3229    3230    3230
       0    3232    3233    3234    3233    3234    3234       0    3236    3237
    3238    3237    3238    3238       0    3240    3241    3242    3241    3242
    3242       0    3244    3245    3246    3245    3246    3246       0    3248
    3249    3250    3249    3250    3250       0    3252    3253    3254    3253
    3254    3254       0    3256    3257    3258    3257    3258    3258       0
    3260    3261    3262    3261    3262    3262       0    3264    3265    3266
    3265    3266    3266       0    3268    3269    3270    3269    3270    3270
       0    3272    3273    3274    3273    3274    3274       0    3276    3277
    3278    3277    3278    3278       0    3280    3281    3282    3281    3282
    3282       0    3284    3285    3286    3285    3286    3286       0    3288
    3289    3290    3289    3290    3290       0    3292    3293    3294    3293
    3294    3294       0    3296    3297    3298    3297    3298    3298       0
    3300    3301    3302    3301    3302    3302       0    3304    3305    3306
    3305    3306    3306       0    3308    3309    3310    3309    3310    3310
       0    3312    3313    3314    3313    3314    3314       0    3316    3317
    3318    3317    3318    3318       0    3320    3321    3322    3321    3322
    3322       0    3324    3325    3326    3325    3326    3326       0    3328
    3329    3330    3329    3330    3330       0    3332    3333    3334    3333
    3334    3334       0    3336    3337    3338    3337    3338    3338       0
    3340    3341    3342    3341    3342    3342       0    3344    3345    3346
    3345    3346    3346       0    3348    3349    3350    3349    3350    3350
       0    3352    3353    3354    3353    3354    3354       0    3356    3357
    3358    3357    3358    3358       0    3360    3361    3362    3361    3362
    3362       0    3364    3365    3366    3365    3366    3366       0    3368
    3369    3370    3369    3370    3370       0    3372    3373    3374    3373
    3374    3374       0    3376    3377    3378    3377    3378    3378       0
    3380    3381    3382    3381    3382    3382       0    3384    3385    3386
    3385    3386    3386       0    3388    3389    3390    3389    3390    3390
       0    3392    3393    3394    3393    3394    3394       0    3396    3397
    3398    3397    3398    3398       0    3400    3401    3402    3401    3402
    3402       0    3404    3405    3406    3405    3406    3406       0    3408
    3409    3410    3409    3410    3410       0    3412    3413    3414    3413
    3414    3414       0    3416    3417    3418    3417    3418    3418       0
    3420    3421    3422    3421    3422    3422       0    3424    3425    3426
    3425    3426    3426       0    3428    3429    3430    3429    3430    3430
       0    3432    3433    3434    3433    3434    3434       0    3436    3437
    3438    3437    3438    3438       0    3440    3441    3442    3441    3442
    3442       0    3444    3445    3446    3445    3446    3446       0    3448
    3449    3450    3449    3450    3450       0    3452    3453    3454    3453
    3454    3454       0    3456    3457    3458    3457    3458    3458       0
    3460    3461    3462    3461    3462    3462       0    3464    3465    3466
    3465    3466    3466       0    3468    3469    3470    3469    3470    3470
       0    3472    3473    3474    3473    3474    3474       0    3476    3477
    3478    3477    3478    3478       0    3480    3481    3482    3481    3482
    3482       0    3484    3485    3486    3485    3486    3486       0    3488
    3489    3490    3489    3490    3490       0    3492    3493    3494    3493
    3494    3494       0    3496    3497    3498    3497    3498    3498       0
    3500    3501    3502    3501    3502    3502       0    3504    3505    3506
    3505    3506    3506       0    3508    3509    3510    3509    3510    3510
       0    3512    3513    3514    3513    3514    3514       0    3516    3517
    3518    3517    3518    3518       0    3520    3521    3522    3521    3522
    3522       0    3524    3525    3526    3525    3526    3526       0    3528
    3529    3530    3529    3530    3530       0    3532    3533    3534    3533
    3534    3534       0    3536    3537    3538    3537    3538    3538       0
    3540    3541    3542    3541    3542    3542       0    3544    3545    3546
    3545    3546    3546       0    3548    3549    3550    3549    3550    3550
       0    3552    3553    3554    3553    3554    3554       0    3556    3557
    3558    3557    3558    3558       0    3560    3561    3562    3561    3562
    3562       0    3564    3565    3566    3565    3566    3566       0    3568
    3569    3570    3569    3570    3570       0    3572    3573    3574    3573
    3574    3574       0    3576    3577    3578    3577    3578    3578       0
    3580    3581    3582    3581    3582    3582       0    3584    3585    3586
    3585    3586    3586       0    3588    3589    3590    3589    3590    3590
       0    3592    3593    3594    3593    3594    3594       0    3596    3597
    3598    3597    3598    3598       0    3600    3601    3602    3601    3602
    3602       0    3604    3605    3606    3605    3606    3606       0    3608
    3609    3610    3609    3610    3610       0    3612    3613    3614    3613
    3614    3614       0    3616    3617    3618    3617    3618    3618       0
    3620    3621    3622    3621    3622    3622       0    3624    3625    3626
    3625    3626    3626       0    3628    3629    3630    3629    3630    3630
       0    3632    3633    3634    3633    3634    3634       0    3636    3637
    3638    3637    3638    3638       0    3640    3641    3642    3641    3642
    3642       0    3644    3645    3646    3645    3646    3646       0    3648
    3649    3650    3649    3650    3650       0    3652    3653    3654    3653
    3654    3654       0    3656    3657    3658    3657    3658    3658       0
    3660    3661    3662    3661    3662    3662       0    3664    3665    3666
    3665    3666    3666       0    3668    3669    3670    3669    3670    3670
       0    3672    3673    3674    3673    3674    3674       0    3676    3677
    3678    3677    3678    3678       0    3680    3681    3682    3681    3682
    3682       0    3684    3685    3686    3685    3686    3686       0    3688
    3689    3690    3689    3690    3690       0    3692    3693    3694    3693
    3694    3694       0    3696    3697    3698    3697    3698    3698       0
    3700    3701    3702    3701    3702    3702       0    3704    3705    3706
    3705    3706    3706       0    3708    3709    3710    3709    3710    3710
       0    3712    3713    3714    3713    3714    3714       0    3716    3717
    3718    3717    3718    3718       0    3720    3721    3722    3721    3722
    3722       0    3724    3725    3726    3725    3726    3726       0    3728
    3729    3730    3729    3730    3730       0    3732    3733    3734    3733
    3734    3734       0    3736    3737    3738    3737    3738    3738       0
    3740    3741    3742    3741    3742    3742       0    3744    3745    3746
    3745    3746    3746       0    3748    3749    3750    3749    3750    3750
       0    3752    3753    3754    3753    3754    3754       0    3756    3757
    3758    3757    3758    3758       0    3760    3761    3762    3761    3762
    3762       0    3764    3765    3766    3765    3766    3766       0    3768
    3769    3770    3769    3770    3770       0    3772    3773    3774    3773
    3774    3774       0    3776    3777    3778    3777    3778    3778       0
    3780    3781    3782    3781    3782    3782       0    3784    3785    3786
    3785    3786    3786       0    3788    3789    3790    3789    3790    3790
       0    3792    3793    3794    3793    3794    3794       0    3796    3797
    3798    3797    3798    3798       0    3800    3801    3802    3801    3802
    3802       0    3804    3805    3806    3805    3806    3806       0    3808
    3809    3810    3809    3810    3810       0    3812    3813    3814    3813
    3814    3814       0    3816    3817    3818    3817    3818    3818       0
    3820    3821    3822    3821    3822    3822       0    3824    3825    3826
    3825    3826    3826       0    3828    3829    3830    3829    3830    3830
       0    3832    3833    3834    3833    3834    3834       0    3836    3837
    3838    3837    3838    3838       0    3840    3841    3842    3841    3842
    3842       0    3844    3845    3846    3845    3846    3846       0    3848
    3849    3850    3849    3850    3850       0    3852    3853    3854    3853
    3854    3854       0    3856    3857    3858    3857    3858    3858       0
    3860    3861    3862    3861    3862    3862       0    3864    3865    3866
    3865    3866    3866       0    3868    3869    3870    3869    3870    3870
       0    3872    3873    3874    3873    3874    3874       0    3876    3877
    3878    3877    3878    3878       0    3880    3881    3882    3881    3882
    3882       0    3884    3885    3886    3885    3886    3886       0    3888
    3889    3890    3889    3890    3890       0    3892    3893    3894    3893
    3894    3894       0    3896    3897    3898    3897    3898    3898       0
    3900    3901    3902    3901    3902    3902       0    3904    3905    3906
    3905    3906    3906       0    3908    3909    3910    3909    3910    3910
       0    3912    3913    3914    3913    3914    3914       0    3916    3917
    3918    3917    3918    3918       0    3920    3921    3922    3921    3922
    3922       0    3924    3925    3926    3925    3926    3926       0    3928
    3929    3930    3929    3930    3930       0    3932    3933    3934    3933
    3934    3934       0    3936    3937    3938    3937    3938    3938       0
    3940    3941    3942    3941    3942    3942       0    3944    3945    3946
    3945    3946    3946       0    3948    3949    3950    3949    3950    3950
       0    3952    3953    3954    3953    3954    3954       0    3956    3957
    3958    3957    3958    3958       0    3960    3961    3962    3961    3962
    3962       0    3964    3965    3966    3965    3966    3966       0    3968
    3969    3970    3969    3970    3970       0    3972    3973    3974    3973
    3974    3974       0    3976    3977    3978    3977    3978    3978       0
    3980    3981    3982    3981    3982    3982       0    3984    3985    3986
    3985    3986    3986       0    3988    3989    3990    3989    3990    3990
       0    3992    3993    3994    3993    3994    3994       0    3996    3997
    3998    3997    3998    3998       0    4000    4001    4002    4001    4002
    4002       0    4004    4005    4006    4005    4006    4006       0    4008
    4009    4010    4009    4010    4010       0    4012    4013    4014    4013
    4014    4014       0    4016    4017    4018    4017    4018    4018       0
    4020    4021    4022    4021    4022    4022       0    4024    4025    4026
    4025    4026    4026       0    4028    4029    4030    4029    4030    4030
       0    4032    4033    4034    4033    4034    4034       0    4036    4037
    4038    4037    4038    4038       0    4040    4041    4042    4041    4042
    4042       0    4044    4045    4046    4045    4046    4046       0    4048
    4049    4050    4049    4050    4050       0    4052    4053    4054    4053
    4054    4054       0    4056    4057    4058    4057    4058    4058       0
    4060    4061    4062    4061    4062    4062       0    4064    4065    4066
    4065    4066    4066       0    4068    4069    4070    4069    4070    4070
       0    4072    4073    4074    4073    4074    4074       0    4076    4077
    4078    4077    4078    4078       0    4080    4081    4082    4081    4082
    4082       0    4084    4085    4086    4085    4086    4086       0    4088
    4089    4090    4089    4090    4090       0    4092    4093    4094    4093
    4094    4094       0    4096    4097    4098    4097    4098    4098       0
    4100    4101    4102    4101    4102    4102       0    4104    4105    4106
    4105    4106    4106       0    4108    4109    4110    4109    4110    4110
       0    4112    4113    4114    4113    4114    4114       0    4116    4117
    4118    4117    4118    4118       0    4120    4121    4122    4121    4122
    4122       0    4124    4125    4126    4125    4126    4126       0    4128
    4129    4130    4129    4130    4130       0    4132    4133    4134    4133
    4134    4134       0    4136    4137    4138    4137    4138    4138       0
    4140    4141    4142    4141    4142    4142       0    4144    4145    4146
    4145    4146    4146       0    4148    4149    4150    4149    4150    4150
       0    4152    4153    4154    4153    4154    4154       0    4156    4157
    4158    4157    4158    4158       0    4160    4161    4162    4161    4162
    4162       0    4164    4165    4166    4165    4166    4166       0    4168
    4169    4170    4169    4170    4170       0    4172    4173    4174    4173
    4174    4174       0    4176    4177    4178    4177    4178    4178       0
    4180    4181    4182    4181    4182    4182       0    4184    4185    4186
    4185    4186    4186       0    4188    4189    4190    4189    4190    4190
       0    4192    4193    4194    4193    4194    4194       0    4196    4197
    4198    4197    4198    4198       0    4200    4201    4202    4201    4202
    4202       0    4204    4205    4206    4205    4206    4206       0    4208
    4209    4210    4209    4210    4210       0    4212    4213    4214    4213
    4214    4214       0    4216    4217    4218    4217    4218    4218       0
    4220    4221    4222    4221    4222    4222       0    4224    4225    4226
    4225    4226    4226       0    4228    4229    4230    4229    4230    4230
       0    4232    4233    4234    4233    4234    4234       0    4236    4237
    4238    4237    4238    4238       0    4240    4241    4242    4241    4242
    4242       0    4244    4245    4246    4245    4246    4246       0    4248
    4249    4250    4249    4250    4250       0    4252    4253    4254    4253
    4254    4254       0    4256    4257    4258    4257    4258    4258       0
    4260    4261    4262    4261    4262    4262       0    4264    4265    4266
    4265    4266    4266       0    4268    4269    4270    4269    4270    4270
       0    4272    4273    4274    4273    4274    4274       0    4276    4277
    4278    4277    4278    4278       0    4280    4281    4282    4281    4282
    4282       0    4284    4285    4286    4285    4286    4286       0    4288
    4289    4290    4289    4290    4290       0    4292    4293    4294    4293
    4294    4294       0    4296    4297    4298    4297    4298    4298       0
    4300    4301    4302    4301    4302    4302       0    4304    4305    4306
    4305    4306    4306       0    4308    4309    4310    4309    4310    4310
       0    4312    4313    4314    4313    4314    4314       0    4316    4317
    4318    4317    4318    4318       0    4320    4321    4322    4321    4322
    4322       0    4324    4325    4326    4325    4326    4326       0    4328
    4329    4330    4329    4330    4330       0    4332    4333    4334    4333
    4334    4334       0    4336    4337    4338    4337    4338    4338       0
    4340    4341    4342    4341    4342    4342       0    4344    4345    4346
    4345    4346    4346       0    4348    4349    4350    4349    4350    4350
       0    4352    4353    4354    4353    4354    4354       0    4356    4357
    4358    4357    4358    4358       0    4360    4361    4362    4361    4362
    4362       0    4364    4365    4366    4365    4366    4366       0    4368
    4369    4370    4369    4370    4370       0    4372    4373    4374    4373
    4374    4374       0    4376    4377    4378    4377    4378    4378       0
    4380    4381    4382    4381    4382    4382       0    4384    4385    4386
    4385    4386    4386       0    4388    4389    4390    4389    4390    4390
       0    4392    4393    4394    4393    4394    4394       0    4396    4397
    4398    4397    4398    4398       0    4400    4401    4402    4401    4402
    4402       0    4404    4405    4406    4405    4406    4406       0    4408
    4409    4410    4409    4410    4410       0    4412    4413    4414    4413
    4414    4414       0    4416    4417    4418    4417    4418    4418       0
    4420    4421    4422    4421    4422    4422       0    4424    4425    4426
    4425    4426    4426       0    4428    4429    4430    4429    4430    4430
       0    4432    4433    4434    4433    4434    4434       0    4436    4437
    4438    4437    4438    4438       0    4440    4441    4442    4441    4442
    4442       0    4444    4445    4446    4445    4446    4446       0    4448
    4449    4450    4449    4450    4450       0    4452    4453    4454    4453
    4454    4454       0    4456    4457    4458    4457    4458    4458       0
    4460    4461    4462    4461    4462    4462       0    4464    4465    4466
    4465    4466    4466       0    4468    4469    4470    4469    4470    4470
       0    4472    4473    4474    4473    4474    4474       0    4476    4477
    4478    4477    4478    4478       0    4480    4481    4482    4481    4482
    4482       0    4484    4485    4486    4485    4486    4486       0    4488
    4489    4490    4489    4490    4490       0    4492    4493    4494    4493
    4494    4494       0    4496    4497    4498    4497    4498    4498       0
    4500    4501    4502    4501    4502    4502       0    4504    4505    4506
    4505    4506    4506       0    4508    4509    4510    4509    4510    4510
       0    4512    4513    4514    4513    4514    4514       0    4516    4517
    4518    4517    4518    4518       0    4520    4521    4522    4521    4522
    4522       0    4524    4525    4526    4525    4526    4526       0    4528
    4529    4530    4529    4530    4530       0    4532    4533    4534    4533
    4534    4534       0    4536    4537    4538    4537    4538    4538       0
    4540    4541    4542    4541    4542    4542       0    4544    4545    4546
    4545    4546    4546       0    4548    4549    4550    4549    4550    4550
       0    4552    4553    4554    4553    4554    4554       0    4556    4557
    4558    4557    4558    4558       0    4560    4561    4562    4561    4562
    4562       0    4564    4565    4566    4565    4566    4566       0    4568
    4569    4570    4569    4570    4570       0    4572    4573    4574    4573
    4574    4574       0    4576    4577    4578    4577    4578    4578       0
    4580    4581    4582    4581    4582    4582       0    4584    4585    4586
    4585    4586    4586       0    4588    4589    4590    4589    4590    4590
       0    4592    4593    4594    4593    4594    4594       0    4596    4597
    4598    4597    4598    4598       0    4600    4601    4602    4601    4602
    4602       0    4604    4605    4606    4605    4606    4606       0    4608
    4609    4610    4609    4610    4610       0    4612    4613    4614    4613
    4614    4614       0    4616    4617    4618    4617    4618    4618       0
    4620    4621    4622    4621    4622    4622       0    4624    4625    4626
    4625    4626    4626       0    4628    4629    4630    4629    4630    4630
       0    4632    4633    4634    4633    4634    4634       0    4636    4637
    4638    4637    4638    4638       0    4640    4641    4642    4641    4642
    4642       0    4644    4645    4646    4645    4646    4646       0    4648
    4649    4650    4649    4650    4650       0    4652    4653    4654    4653
    4654    4654       0    4656    4657    4658    4657    4658    4658       0
    4660    4661    4662    4661    4662    4662       0    4664    4665    4666
    4665    4666    4666       0    4668    4669    4670    4669    4670    4670
       0    4672    4673    4674    4673    4674    4674       0    4676    4677
    4678    4677    4678    4678       0    4680    4681    4682    4681    4682
    4682       0    4684    4685    4686    4685    4686    4686       0    4688
    4689    4690    4689    4690    4690       0    4692    4693    4694    4693
    4694    4694       0    4696    4697    4698    4697    4698    4698       0
    4700    4701    4702    4701    4702    4702       0    4704    4705    4706
    4705    4706    4706       0    4708    4709    4710    4709    4710    4710
       0    4712    4713    4714    4713    4714    4714       0    4716    4717
    4718    4717    4718    4718       0    4720    4721    4722    4721    4722
    4722       0    4724    4725    4726    4725    4726    4726       0    4728
    4729    4730    4729    4730    4730       0    4732    4733    4734    4733
    4734    4734       0    4736    4737    4738    4737    4738    4738       0
    4740    4741    4742    4741    4742    4742       0    4744    4745    4746
    4745    4746    4746       0    4748    4749    4750    4749    4750    4750
       0    4752    4753    4754    4753    4754    4754       0    4756    4757
    4758    4757    4758    4758       0    4760    4761    4762    4761    4762
    4762       0    4764    4765    4766    4765    4766    4766       0    4768
    4769    4770    4769    4770    4770       0    4772    4773    4774    4773
    4774    4774       0    4776    4777    4778    4777    4778    4778       0
    4780    4781    4782    4781    4782    4782       0    4784    4785    4786
    4785    4786    4786       0    4788    4789    4790    4789    4790    4790
       0    4792    4793    4794    4793    4794    4794       0    4796    4797
    4798    4797    4798    4798       0    4800    4801    4802    4801    4802
    4802       0    4804    4805    4806    4805    4806    4806       0    4808
    4809    4810    4809    4810    4810       0    4812    4813    4814    4813
    4814    4814       0    4816    4817    4818    4817    4818    4818       0
    4820    4821    4822    4821    4822    4822       0    4824    4825    4826
    4825    4826    4826       0    4828    4829    4830    4829    4830    4830
       0    4832    4833    4834    4833    4834    4834       0    4836    4837
    4838    4837    4838    4838       0    4840    4841    4842    4841    4842
    4842       0    4844    4845    4846    4845    4846    4846       0    4848
    4849    4850    4849    4850    4850       0    4852    4853    4854    4853
    4854    4854       0    4856    4857    4858    4857    4858    4858       0
    4860    4861    4862    4861    4862    4862       0    4864    4865    4866
    4865    4866    4866       0    4868    4869    4870    4869    4870    4870
       0    4872    4873    4874    4873    4874    4874       0    4876    4877
    4878    4877    4878    4878       0    4880    4881    4882    4881    4882
    4882       0    4884    4885    4886    4885    4886    4886       0    4888
    4889    4890    4889    4890    4890       0    4892    4893    4894    4893
    4894    4894       0    4896    4897    4898    4897    4898    4898       0
    4900    4901    4902    4901    4902    4902       0    4904    4905    4906
    4905    4906    4906       0    4908    4909    4910    4909    4910    4910
       0    4912    4913    4914    4913    4914    4914       0    4916    4917
    4918    4917    4918    4918       0    4920    4921    4922    4921    4922
    4922       0    4924    4925    4926    4925    4926    4926       0    4928
    4929    4930    4929    4930    4930       0    4932    4933    4934    4933
    4934    4934       0    4936    4937    4938    4937    4938    4938       0
    4940    4941    4942    4941    4942    4942       0    4944    4945    4946
    4945    4946    4946       0    4948    4949    4950    4949    4950    4950
       0    4952    4953    4954    4953    4954    4954       0    4956    4957
    4958    4957    4958    4958       0    4960    4961    4962    4961    4962
    4962       0    4964    4965    4966    4965    4966    4966       0    4968
    4969    4970    4969    4970    4970       0    4972    4973    4974    4973
    4974    4974       0    4976    4977    4978    4977    4978    4978       0
    4980    4981    4982    4981    4982    4982       0    4984    4985    4986
    4985    4986    4986       0    4988    4989    4990    4989    4990    4990
       0    4992    4993    4994    4993    4994    4994       0    4996    4997
    4998    4997    4998    4998       0    5000    5001    5002    5001    5002
    5002       0    5004    5005    5006    5005    5006    5006       0    5008
    5009    5010    5009    5010    5010       0    5012    5013    5014    5013
    5014    5014       0    5016    5017    5018    5017    5018    5018       0
    5020    5021    5022    5021    5022    5022       0    5024    5025    5026
    5025    5026    5026       0    5028    5029    5030    5029    5030    5030
       0    5032    5033    5034    5033    5034    5034       0    5036    5037
    5038    5037    5038    5038       0    5040    5041    5042    5041    5042
    5042       0    5044    5045    5046    5045    5046    5046       0    5048
    5049    5050    5049    5050    5050       0    5052    5053    5054    5053
    5054    5054       0    5056    5057    5058    5057    5058    5058       0
    5060    5061    5062    5061    5062    5062       0    5064    5065    5066
    5065    5066    5066       0    5068    5069    5070    5069    5070    5070
       0    5072    5073    5074    5073    5074    5074       0    5076    5077
    5078    5077    5078    5078       0    5080    5081    5082    5081    5082
    5082       0    5084    5085    5086    5085    5086    5086       0    5088
    5089    5090    5089    5090    5090       0    5092    5093    5094    5093
    5094    5094       0    5096    5097    5098    5097    5098    5098       0
    5100    5101    5102    5101    5102    5102       0    5104    5105    5106
    5105    5106    5106       0    5108    5109    5110    5109    5110    5110
       0    5112    5113    5114    5113    5114    5114       0    5116    5117
    5118    5117    5118    5118       0    5120    5121    5122    5121    5122
    5122       0    5124    5125    5126    5125    5126    5126       0    5128
    5129    5130    5129    5130    5130       0    5132    5133    5134    5133
    5134    5134       0    5136    5137    5138    5137    5138    5138       0
    5140    5141    5142    5141    5142    5142       0    5144    5145    5146
    5145    5146    5146       0    5148    5149    5150    5149    5150    5150
       0    5152    5153    5154    5153    5154    5154       0    5156    5157
    5158    5157    5158    5158       0    5160    5161    5162    5161    5162
    5162       0    5164    5165    5166    5165    5166    5166       0    5168
    5169    5170    5169    5170    5170       0    5172    5173    5174    5173
    5174    5174       0    5176    5177    5178    5177    5178    5178       0
    5180    5181    5182    5181    5182    5182       0    5184    5185    5186
    5185    5186    5186       0    5188    5189    5190    5189    5190    5190
       0    5192    5193    5194    5193    5194    5194       0    5196    5197
    5198    5197    5198    5198       0    5200    5201    5202    5201    5202
    5202       0    5204    5205    5206    5205    5206    5206       0    5208
    5209    5210    5209    5210    5210       0    5212    5213    5214    5213
    5214    5214       0    5216    5217    5218    5217    5218    5218       0
    5220    5221    5222    5221    5222    5222       0    5224    5225    5226
    5225    5226    5226       0    5228    5229    5230    5229    5230    5230
       0    5232    5233    5234    5233    5234    5234       0    5236    5237
    5238    5237    5238    5238       0    5240    5241    5242    5241    5242
    5242       0    5244    5245    5246    5245    5246    5246       0    5248
    5249    5250    5249    5250    5250       0    5252    5253    5254    5253
    5254    5254       0    5256    5257    5258    5257    5258    5258       0
    5260    5261    5262    5261    5262    5262       0    5264    5265    5266
    5265    5266    5266       0    5268    5269    5270    5269    5270    5270
       0    5272    5273    5274    5273    5274    5274       0    5276    5277
    5278    5277    5278    5278       0    5280    5281    5282    5281    5282
    5282       0    5284    5285    5286    5285    5286    5286       0    5288
    5289    5290    5289    5290    5290       0    5292    5293    5294    5293
    5294    5294       0    5296    5297    5298    5297    5298    5298       0
    5300    5301    5302    5301    5302    5302       0    5304    5305    5306
    5305    5306    5306       0    5308    5309    5310    5309    5310    5310
       0    5312    5313    5314    5313    5314    5314       0    5316    5317
    5318    5317    5318    5318       0    5320    5321    5322    5321    5322
    5322       0    5324    5325    5326    5325    5326    5326       0    5328
    5329    5330    5329    5330    5330       0    5332    5333    5334    5333
    5334    5334       0    5336    5337    5338    5337    5338    5338       0
    5340    5341    5342    5341    5342    5342       0    5344    5345    5346
    5345    5346    5346       0    5348    5349    5350    5349    5350    5350
       0    5352    5353    5354    5353    5354    5354       0    5356    5357
    5358    5357    5358    5358       0    5360    5361    5362    5361    5362
    5362       0    5364    5365    5366    5365    5366    5366       0    5368
    5369    5370    5369    5370    5370       0    5372    5373    5374    5373
    5374    5374       0    5376    5377    5378    5377    5378    5378       0
    5380    5381    5382    5381    5382    5382       0    5384    5385    5386
    5385    5386    5386       0    5388    5389    5390    5389    5390    5390
       0    5392    5393    5394    5393    5394    5394       0    5396    5397
    5398    5397    5398    5398       0    5400    5401    5402    5401    5402
    5402       0    5404    5405    5406    5405    5406    5406       0    5408
    5409    5410    5409    5410    5410       0    5412    5413    5414    5413
    5414    5414       0    5416    5417    5418    5417    5418    5418       0
    5420    5421    5422    5421    5422    5422       0    5424    5425    5426
    5425    5426    5426       0    5428    5429    5430    5429    5430    5430
       0    5432    5433    5434    5433    5434    5434       0    5436    5437
    5438    5437    5438    5438       0    5440    5441    5442    5441    5442
    5442       0    5444    5445    5446    5445    5446    5446       0    5448
    5449    5450    5449    5450    5450       0    5452    5453    5454    5453
    5454    5454       0    5456    5457    5458    5457    5458    5458       0
    5460    5461    5462    5461    5462    5462       0    5464    5465    5466
    5465    5466    5466       0    5468    5469    5470    5469    5470    5470
       0    5472    5473    5474    5473    5474    5474       0    5476    5477
    5478    5477    5478    5478       0    5480    5481    5482    5481    5482
    5482       0    5484    5485    5486    5485    5486    5486       0    5488
    5489    5490    5489    5490    5490       0    5492    5493    5494    5493
    5494    5494       0    5496    5497    5498    5497    5498    5498       0
    5500    5501    5502    5501    5502    5502       0    5504    5505    5506
    5505    5506    5506       0    5508    5509    5510    5509    5510    5510
       0    5512    5513    5514    5513    5514    5514       0    5516    5517
    5518    5517    5518    5518       0    5520    5521    5522    5521    5522
    5522       0    5524    5525    5526    5525    5526    5526       0    5528
    5529    5530    5529    5530    5530       0    5532    5533    5534    5533
    5534    5534       0    5536    5537    5538    5537    5538    5538       0
    5540    5541    5542    5541    5542    5542       0    5544    5545    5546
    5545    5546    5546       0    5548    5549    5550    5549    5550    5550
       0    5552    5553    5554    5553    5554    5554       0    5556    5557
    5558    5557    5558    5558       0    5560    5561    5562    5561    5562
    5562       0    5564    5565    5566    5565    5566    5566       0    5568
    5569    5570    5569    5570    5570       0    5572    5573    5574    5573
    5574    5574       0    5576    5577    5578    5577    5578    5578       0
    5580    5581    5582    5581    5582    5582       0    5584    5585    5586
    5585    5586    5586       0    5588    5589    5590    5589    5590    5590
       0    5592    5593    5594    5593    5594    5594       0    5596    5597
    5598    5597    5598    5598       0    5600    5601    5602    5601    5602
    5602       0    5604    5605    5606    5605    5606    5606       0    5608
    5609    5610    5609    5610    5610       0    5612    5613    5614    5613
    5614    5614       0    5616    5617    5618    5617    5618    5618       0
    5620    5621    5622    5621    5622    5622       0    5624    5625    5626
    5625    5626    5626       0    5628    5629    5630    5629    5630    5630
       0    5632    5633    5634    5633    5634    5634       0    5636    5637
    5638    5637    5638    5638       0    5640    5641    5642    5641    5642
    5642       0    5644    5645    5646    5645    5646    5646       0    5648
    5649    5650    5649    5650    5650       0    5652    5653    5654    5653
    5654    5654       0    5656    5657    5658    5657    5658    5658       0
    5660    5661    5662    5661    5662    5662       0    5664    5665    5666
    5665    5666    5666       0    5668    5669    5670    5669    5670    5670
       0    5672    5673    5674    5673    5674    5674       0    5676    5677
    5678    5677    5678    5678       0    5680    5681    5682    5681    5682
    5682       0    5684    5685    5686    5685    5686    5686       0    5688
    5689    5690    5689    5690    5690       0    5692    5693    5694    5693
    5694    5694       0    5696    5697    5698    5697    5698    5698       0
    5700    5701    5702    5701    5702    5702       0    5704    5705    5706
    5705    5706    5706       0    5708    5709    5710    5709    5710    5710
       0    5712    5713    5714    5713    5714    5714       0    5716    5717
    5718    5717    5718    5718       0    5720    5721    5722    5721    5722
    5722       0    5724    5725    5726    5725    5726    5726       0    5728
    5729    5730    5729    5730    5730       0    5732    5733    5734    5733
    5734    5734       0    5736    5737    5738    5737    5738    5738       0
    5740    5741    5742    5741    5742    5742       0    5744    5745    5746
    5745    5746    5746       0    5748    5749    5750    5749    5750    5750
       0    5752    5753    5754    5753    5754    5754       0    5756    5757
    5758    5757    5758    5758       0    5760    5761    5762    5761    5762
    5762       0    5764    5765    5766    5765    5766    5766       0    5768
    5769    5770    5769    5770    5770       0    5772    5773    5774    5773
    5774    5774       0    5776    5777    5778    5777    5778    5778       0
    5780    5781    5782    5781    5782    5782       0    5784    5785    5786
    5785    5786    5786       0    5788    5789    5790    5789    5790    5790
       0    5792    5793    5794    5793    5794    5794       0    5796    5797
    5798    5797    5798    5798       0    5800    5801    5802    5801    5802
    5802       0    5804    5805    5806    5805    5806    5806       0    5808
    5809    5810    5809    5810    5810       0    5812    5813    5814    5813
    5814    5814       0    5816    5817    5818    5817    5818    5818       0
    5820    5821    5822    5821    5822    5822       0    5824    5825    5826
    5825    5826    5826       0    5828    5829    5830    5829    5830    5830
       0    5832    5833    5834    5833    5834    5834       0    5836    5837
    5838    5837    5838    5838       0    5840    5841    5842    5841    5842
    5842       0    5844    5845    5846    5845    5846    5846       0    5848
    5849    5850    5849    5850    5850       0    5852    5853    5854    5853
    5854    5854       0    5856    5857    5858    5857    5858    5858       0
    5860    5861    5862    5861    5862    5862       0    5864    5865    5866
    5865    5866    5866       0    5868    5869    5870    5869    5870    5870
       0    5872    5873    5874    5873    5874    5874       0    5876    5877
    5878    5877    5878    5878       0    5880    5881    5882    5881    5882
    5882       0    5884    5885    5886    5885    5886    5886       0    5888
    5889    5890    5889    5890    5890       0    5892    5893    5894    5893
    5894    5894       0    5896    5897    5898    5897    5898    5898       0
    5900    5901    5902    5901    5902    5902       0    5904    5905    5906
    5905    5906    5906       0    5908    5909    5910    5909    5910    5910
       0    5912    5913    5914    5913    5914    5914       0    5916    5917
    5918    5917    5918    5918       0    5920    5921    5922    5921    5922
    5922       0    5924    5925    5926    5925    5926    5926       0    5928
    5929    5930    5929    5930    5930       0    5932    5933    5934    5933
    5934    5934       0    5936    5937    5938    5937    5938    5938       0
    5940    5941    5942    5941    5942    5942       0    5944    5945    5946
    5945    5946    5946       0    5948    5949    5950    5949    5950    5950
       0    5952    5953    5954    5953    5954    5954       0    5956    5957
    5958    5957    5958    5958       0    5960    5961    5962    5961    5962
    5962       0    5964    5965    5966    5965    5966    5966       0    5968
    5969    5970    5969    5970    5970       0    5972    5973    5974    5973
    5974    5974       0    5976    5977    5978    5977    5978    5978       0
    5980    5981    5982    5981    5982    5982       0    5984    5985    5986
    5985    5986    5986       0    5988    5989    5990    5989    5990    5990
       0    5992    5993    5994    5993    5994    5994       0    5996    5997
    5998    5997    5998    5998       0    6000    6001    6002    6001    6002
    6002       0    6004    6005    6006    6005    6006    6006       0    6008
    6009    6010    6009    6010    6010       0    6012    6013    6014    6013
    6014    6014       0    6016    6017    6018    6017    6018    6018       0
    6020    6021    6022    6021    6022    6022       0    6024    6025    6026
    6025    6026    6026       0    6028    6029    6030    6029    6030    6030
       0    6032    6033    6034    6033    6034    6034       0    6036    6037
    6038    6037    6038    6038       0    6040    6041    6042    6041    6042
    6042       0    6044    6045    6046    6045    6046    6046       0    6048
    6049    6050    6049    6050    6050       0    6052    6053    6054    6053
    6054    6054       0    6056    6057    6058    6057    6058    6058       0
    6060    6061    6062    6061    6062    6062       0    6064    6065    6066
    6065    6066    6066       0    6068    6069    6070    6069    6070    6070
       0    6072    6073    6074    6073    6074    6074       0    6076    6077
    6078    6077    6078    6078       0    6080    6081    6082    6081    6082
    6082       0    6084    6085    6086    6085    6086    6086       0    6088
    6089    6090    6089    6090    6090       0    6092    6093    6094    6093
    6094    6094       0    6096    6097    6098    6097    6098    6098       0
    6100    6101    6102    6101    6102    6102       0    6104    6105    6106
    6105    6106    6106       0    6108    6109    6110    6109    6110    6110
       0    6112    6113    6114    6113    6114    6114       0    6116    6117
    6118    6117    6118    6118       0    6120    6121    6122    6121    6122
    6122       0    6124    6125    6126    6125    6126    6126       0    6128
    6129    6130    6129    6130    6130       0    6132    6133    6134    6133
    6134    6134       0    6136    6137    6138    6137    6138    6138       0
    6140    6141    6142    6141    6142    6142       0    6144    6145    6146
    6145    6146    6146       0    6148    6149    6150    6149    6150    6150
       0    6152    6153    6154    6153    6154    6154       0    6156    6157
    6158    6157    6158    6158       0    6160    6161    6162    6161    6162
    6162       0    6164    6165    6166    6165    6166    6166       0    6168
    6169    6170    6169    6170    6170       0    6172    6173    6174    6173
    6174    6174       0    6176    6177    6178    6177    6178    6178       0
    6180    6181    6182    6181    6182    6182       0    6184    6185    6186
    6185    6186    6186       0    6188    6189    6190    6189    6190    6190
       0    6192    6193    6194    6193    6194    6194       0    6196    6197
    6198    6197    6198    6198       0    6200    6201    6202    6201    6202
    6202       0    6204    6205    6206    6205    6206    6206       0    6208
    6209    6210    6209    6210    6210       0    6212    6213    6214    6213
    6214    6214       0    6216    6217    6218    6217    6218    6218       0
    6220    6221    6222    6221    6222    6222       0    6224    6225    6226
    6225    6226    6226       0    6228    6229    6230    6229    6230    6230
       0    6232    6233    6234    6233    6234    6234       0    6236    6237
    6238    6237    6238    6238       0    6240    6241    6242    6241    6242
    6242       0    6244    6245    6246    6245    6246    6246       0    6248
    6249    6250    6249    6250    6250       0    6252    6253    6254    6253
    6254    6254       0    6256    6257    6258    6257    6258    6258       0
    6260    6261    6262    6261    6262    6262       0    6264    6265    6266
    6265    6266    6266       0    6268    6269    6270    6269    6270    6270
       0    6272    6273    6274    6273    6274    6274       0    6276    6277
    6278    6277    6278    6278       0    6280    6281    6282    6281    6282
    6282       0    6284    6285    6286    6285    6286    6286       0    6288
    6289    6290    6289    6290    6290       0    6292    6293    6294    6293
    6294    6294       0    6296    6297    6298    6297    6298    6298       0
    6300    6301    6302    6301    6302    6302       0    6304    6305    6306
    6305    6306    6306       0    6308    6309    6310    6309    6310    6310
       0    6312    6313    6314    6313    6314    6314       0    6316    6317
    6318    6317    6318    6318       0    6320    6321    6322    6321    6322
    6322       0    6324    6325    6326    6325    6326    6326       0    6328
    6329    6330    6329    6330    6330       0    6332    6333    6334    6333
    6334    6334       0    6336    6337    6338    6337    6338    6338       0
    6340    6341    6342    6341    6342    6342       0    6344    6345    6346
    6345    6346    6346       0    6348    6349    6350    6349    6350    6350
       0    6352    6353    6354    6353    6354    6354       0    6356    6357
    6358    6357    6358    6358       0    6360    6361    6362    6361    6362
    6362       0    6364    6365    6366    6365    6366    6366       0    6368
    6369    6370    6369    6370    6370       0    6372    6373    6374    6373
    6374    6374       0    6376    6377    6378    6377    6378    6378       0
    6380    6381    6382    6381    6382    6382       0    6384    6385    6386
    6385    6386    6386       0    6388    6389    6390    6389    6390    6390
       0    6392    6393    6394    6393    6394    6394       0    6396    6397
    6398    6397    6398    6398       0    6400    6401    6402    6401    6402
    6402       0    6404    6405    6406    6405    6406    6406       0    6408
    6409    6410    6409    6410    6410       0    6412    6413    6414    6413
    6414    6414       0    6416    6417    6418    6417    6418    6418       0
    6420    6421    6422    6421    6422    6422       0    6424    6425    6426
    6425    6426    6426       0    6428    6429    6430    6429    6430    6430
       0    6432    6433    6434    6433    6434    6434       0    6436    6437
    6438    6437    6438    6438       0    6440    6441    6442    6441    6442
    6442       0    6444    6445    6446    6445    6446    6446       0    6448
    6449    6450    6449    6450    6450       0    6452    6453    6454    6453
    6454    6454       0    6456    6457    6458    6457    6458    6458       0
    6460    6461    6462    6461    6462    6462       0    6464    6465    6466
    6465    6466    6466       0    6468    6469    6470    6469    6470    6470
       0    6472    6473    6474    6473    6474    6474       0    6476    6477
    6478    6477    6478    6478       0    6480    6481    6482    6481    6482
    6482       0    6484    6485    6486    6485    6486    6486       0    6488
    6489    6490    6489    6490    6490       0    6492    6493    6494    6493
    6494    6494       0    6496    6497    6498    6497    6498    6498       0
    6500    6501    6502    6501    6502    6502       0    6504    6505    6506
    6505    6506    6506       0    6508    6509    6510    6509    6510    6510
       0    6512    6513    6514    6513    6514    6514       0    6516    6517
    6518    6517    6518    6518       0    6520    6521    6522    6521    6522
    6522       0    6524    6525    6526    6525    6526    6526       0    6528
    6529    6530    6529    6530    6530       0    6532    6533    6534    6533
    6534    6534       0    6536    6537    6538    6537    6538    6538       0
    6540    6541    6542    6541    6542    6542       0    6544    6545    6546
    6545    6546    6546       0    6548    6549    6550    6549    6550    6550
       0    6552    6553    6554    6553    6554    6554       0    6556    6557
    6558    6557    6558    6558       0    6560    6561    6562    6561    6562
    6562       0    6564    6565    6566    6565    6566    6566       0    6568
    6569    6570    6569    6570    6570       0    6572    6573    6574    6573
    6574    6574       0    6576    6577    6578    6577    6578    6578       0
    6580    6581    6582    6581    6582    6582       0    6584    6585    6586
    6585    6586    6586       0    6588    6589    6590    6589    6590    6590
       0    6592    6593    6594    6593    6594    6594       0    6596    6597
    6598    6597    6598    6598       0    6600    6601    6602    6601    6602
    6602       0    6604    6605    6606    6605    6606    6606       0    6608
    6609    6610    6609    6610    6610       0    6612    6613    6614    6613
    6614    6614       0    6616    6617    6618    6617    6618    6618       0
    6620    6621    6622    6621    6622    6622       0    6624    6625    6626
    6625    6626    6626       0    6628    6629    6630    6629    6630    6630
       0    6632    6633    6634    6633    6634    6634       0    6636    6637
    6638    6637    6638    6638       0    6640    6641    6642    6641    6642
    6642       0    6644    6645    6646    6645    6646    6646       0    6648
    6649    6650    6649    6650    6650       0    6652    6653    6654    6653
    6654    6654       0    6656    6657    6658    6657    6658    6658       0
    6660    6661    6662    6661    6662    6662       0    6664    6665    6666
    6665    6666    6666       0    6668    6669    6670    6669    6670    6670
       0    6672    6673    6674    6673    6674    6674       0    6676    6677
    6678    6677    6678    6678       0    6680    6681    6682    6681    6682
    6682       0    6684    6685    6686    6685    6686    6686       0    6688
    6689    6690    6689    6690    6690       0    6692    6693    6694    6693
    6694    6694       0    6696    6697    6698    6697    6698    6698       0
    6700    6701    6702    6701    6702    6702       0    6704    6705    6706
    6705    6706    6706       0    6708    6709    6710    6709    6710    6710
       0    6712    6713    6714    6713    6714    6714       0    6716    6717
    6718    6717    6718    6718       0    6720    6721    6722    6721    6722
    6722       0    6724    6725    6726    6725    6726    6726       0    6728
    6729    6730    6729    6730    6730       0    6732    6733    6734    6733
    6734    6734       0    6736    6737    6738    6737    6738    6738       0
    6740    6741    6742    6741    6742    6742       0    6744    6745    6746
    6745    6746    6746       0    6748    6749    6750    6749    6750    6750
       0    6752    6753    6754    6753    6754    6754       0    6756    6757
    6758    6757    6758    6758       0    6760    6761    6762    6761    6762
    6762       0    6764    6765    6766    6765    6766    6766       0    6768
    6769    6770    6769    6770    6770       0    6772    6773    6774    6773
    6774    6774       0    6776    6777    6778    6777    6778    6778       0
    6780    6781    6782    6781    6782    6782       0    6784    6785    6786
    6785    6786    6786       0    6788    6789    6790    6789    6790    6790
       0    6792    6793    6794    6793    6794    6794       0    6796    6797
    6798    6797    6798    6798       0    6800    6801    6802    6801    6802
    6802       0    6804    6805    6806    6805    6806    6806       0    6808
    6809    6810    6809    6810    6810       0    6812    6813    6814    6813
    6814    6814       0    6816    6817    6818    6817    6818    6818       0
    6820    6821    6822    6821    6822    6822       0    6824    6825    6826
    6825    6826    6826       0    6828    6829    6830    6829    6830    6830
       0    6832    6833    6834    6833    6834    6834       0    6836    6837
    6838    6837    6838    6838       0    6840    6841    6842    6841    6842
    6842       0    6844    6845    6846    6845    6846    6846       0    6848
    6849    6850    6849    6850    6850       0    6852    6853    6854    6853
    6854    6854       0    6856    6857    6858    6857    6858    6858       0
    6860    6861    6862    6861    6862    6862       0    6864    6865    6866
    6865    6866    6866       0    6868    6869    6870    6869    6870    6870
       0    6872    6873    6874    6873    6874    6874       0    6876    6877
    6878    6877    6878    6878       0    6880    6881    6882    6881    6882
    6882       0    6884    6885    6886    6885    6886    6886       0    6888
    6889    6890    6889    6890    6890       0    6892    6893    6894    6893
    6894    6894       0    6896    6897    6898    6897    6898    6898       0
    6900    6901    6902    6901    6902    6902       0    6904    6905    6906
    6905    6906    6906       0    6908    6909    6910    6909    6910    6910
       0    6912    6913    6914    6913    6914    6914       0    6916    6917
    6918    6917    6918    6918       0    6920    6921    6922    6921    6922
    6922       0    6924    6925    6926    6925    6926    6926       0    6928
    6929    6930    6929    6930    6930       0    6932    6933    6934    6933
    6934    6934       0    6936    6937    6938    6937    6938    6938       0
    6940    6941    6942    6941    6942    6942       0    6944    6945    6946
    6945    6946    6946       0    6948    6949    6950    6949    6950    6950
       0    6952    6953    6954    6953    6954    6954       0    6956    6957
    6958    6957    6958    6958       0    6960    6961    6962    6961    6962
    6962       0    6964    6965    6966    6965    6966    6966       0    6968
    6969    6970    6969    6970    6970       0    6972    6973    6974    6973
    6974    6974       0    6976    6977    6978    6977    6978    6978       0
    6980    6981    6982    6981    6982    6982       0    6984    6985    6986
    6985    6986    6986       0    6988    6989    6990    6989    6990    6990
       0    6992    6993    6994    6993    6994    6994       0    6996    6997
    6998    6997    6998    6998       0    7000    7001    7002    7001    7002
    7002       0    7004    7005    7006    7005    7006    7006       0    7008
    7009    7010    7009    7010    7010       0    7012    7013    7014    7013
    7014    7014       0    7016    7017    7018    7017    7018    7018       0
    7020    7021    7022    7021    7022    7022       0    7024    7025    7026
    7025    7026    7026       0    7028    7029    7030    7029    7030    7030
       0    7032    7033    7034    7033    7034    7034       0    7036    7037
    7038    7037    7038    7038       0    7040    7041    7042    7041    7042
    7042       0    7044    7045    7046    7045    7046    7046       0    7048
    7049    7050    7049    7050    7050       0    7052    7053    7054    7053
    7054    7054       0    7056    7057    7058    7057    7058    7058       0
    7060    7061    7062    7061    7062    7062       0    7064    7065    7066
    7065    7066    7066       0    7068    7069    7070    7069    7070    7070
       0    7072    7073    7074    7073    7074    7074       0    7076    7077
    7078    7077    7078    7078       0    7080    7081    7082    7081    7082
    7082       0    7084    7085    7086    7085    7086    7086       0    7088
    7089    7090    7089    7090    7090       0    7092    7093    7094    7093
    7094    7094       0    7096    7097    7098    7097    7098    7098       0
    7100    7101    7102    7101    7102    7102       0    7104    7105    7106
    7105    7106    7106       0    7108    7109    7110    7109    7110    7110
       0    7112    7113    7114    7113    7114    7114       0    7116    7117
    7118    7117    7118    7118       0    7120    7121    7122    7121    7122
    7122       0    7124    7125    7126    7125    7126    7126       0    7128
    7129    7130    7129    7130    7130       0    7132    7133    7134    7133
    7134    7134       0    7136    7137    7138    7137    7138    7138       0
    7140    7141    7142    7141    7142    7142       0    7144    7145    7146
    7145    7146    7146       0    7148    7149    7150    7149    7150    7150
       0    7152    7153    7154    7153    7154    7154       0    7156    7157
    7158    7157    7158    7158       0    7160    7161    7162    7161    7162
    7162       0    7164    7165    7166    7165    7166    7166       0    7168
    7169    7170    7169    7170    7170       0    7172    7173    7174    7173
    7174    7174       0    7176    7177    7178    7177    7178    7178       0
    7180    7181    7182    7181    7182    7182       0    7184    7185    7186
    7185    7186    7186       0    7188    7189    7190    7189    7190    7190
       0    7192    7193    7194    7193    7194    7194       0    7196    7197
    7198    7197    7198    7198       0    7200    7201    7202    7201    7202
    7202       0    7204    7205    7206    7205    7206    7206       0    7208
    7209    7210    7209    7210    7210       0    7212    7213    7214    7213
    7214    7214       0    7216    7217    7218    7217    7218    7218       0
    7220    7221    7222    7221    7222    7222       0    7224    7225    7226
    7225    7226    7226       0    7228    7229    7230    7229    7230    7230
       0    7232    7233    7234    7233    7234    7234       0    7236    7237
    7238    7237    7238    7238       0    7240    7241    7242    7241    7242
    7242       0    7244    7245    7246    7245    7246    7246       0    7248
    7249    7250    7249    7250    7250       0    7252    7253    7254    7253
    7254    7254       0    7256    7257    7258    7257    7258    7258       0
    7260    7261    7262    7261    7262    7262       0    7264    7265    7266
    7265    7266    7266       0    7268    7269    7270    7269    7270    7270
       0    7272    7273    7274    7273    7274    7274       0    7276    7277
    7278    7277    7278    7278       0    7280    7281    7282    7281    7282
    7282       0    7284    7285    7286    7285    7286    7286       0    7288
    7289    7290    7289    7290    7290       0    7292    7293    7294    7293
    7294    7294       0    7296    7297    7298    7297    7298    7298       0
    7300    7301    7302    7301    7302    7302       0    7304    7305    7306
    7305    7306    7306       0    7308    7309    7310    7309    7310    7310
       0    7312    7313    7314    7313    7314    7314       0    7316    7317
    7318    7317    7318    7318       0    7320    7321    7322    7321    7322
    7322       0    7324    7325    7326    7325    7326    7326       0    7328
    7329    7330    7329    7330    7330       0    7332    7333    7334    7333
    7334    7334       0    7336    7337    7338    7337    7338    7338       0
    7340    7341    7342    7341    7342    7342       0    7344    7345    7346
    7345    7346    7346       0    7348    7349    7350    7349    7350    7350
       0    7352    7353    7354    7353    7354    7354       0    7356    7357
    7358    7357    7358    7358       0    7360    7361    7362    7361    7362
    7362       0    7364    7365    7366    7365    7366    7366       0    7368
    7369    7370    7369    7370    7370       0    7372    7373    7374    7373
    7374    7374       0    7376    7377    7378    7377    7378    7378       0
    7380    7381    7382    7381    7382    7382       0    7384    7385    7386
    7385    7386    7386       0    7388    7389    7390    7389    7390    7390
       0    7392    7393    7394    7393    7394    7394       0    7396    7397
    7398    7397    7398    7398       0    7400    7401    7402    7401    7402
    7402       0    7404    7405    7406    7405    7406    7406       0    7408
    7409    7410    7409    7410    7410       0    7412    7413    7414    7413
    7414    7414       0    7416    7417    7418    7417    7418    7418       0
    7420    7421    7422    7421    7422    7422       0    7424    7425    7426
    7425    7426    7426       0    7428    7429    7430    7429    7430    7430
       0    7432    7433    7434    7433    7434    7434       0    7436    7437
    7438    7437    7438    7438       0    7440    7441    7442    7441    7442
    7442       0    7444    7445    7446    7445    7446    7446       0    7448
    7449    7450    7449    7450    7450       0    7452    7453    7454    7453
    7454    7454       0    7456    7457    7458    7457    7458    7458       0
    7460    7461    7462    7461    7462    7462       0    7464    7465    7466
    7465    7466    7466       0    7468    7469    7470    7469    7470    7470
       0    7472    7473    7474    7473    7474    7474       0    7476    7477
    7478    7477    7478    7478       0    7480    7481    7482    7481    7482
    7482       0    7484    7485    7486    7485    7486    7486       0    7488
    7489    7490    7489    7490    7490       0    7492    7493    7494    7493
    7494    7494       0    7496    7497    7498    7497    7498    7498       0
    7500    7501    7502    7501    7502    7502       0    7504    7505    7506
    7505    7506    7506       0    7508    7509    7510    7509    7510    7510
       0    7512    7513    7514    7513    7514    7514       0    7516    7517
    7518    7517    7518    7518       0    7520    7521    7522    7521    7522
    7522       0    7524    7525    7526    7525    7526    7526       0    7528
    7529    7530    7529    7530    7530       0    7532    7533    7534    7533
    7534    7534       0    7536    7537    7538    7537    7538    7538       0
    7540    7541    7542    7541    7542    7542       0    7544    7545    7546
    7545    7546    7546       0    7548    7549    7550    7549    7550    7550
       0    7552    7553    7554    7553    7554    7554       0    7556    7557
    7558    7557    7558    7558       0    7560    7561    7562    7561    7562
    7562       0    7564    7565    7566    7565    7566    7566       0    7568
    7569    7570    7569    7570    7570       0    7572    7573    7574    7573
    7574    7574       0    7576    7577    7578    7577    7578    7578       0
    7580    7581    7582    7581    7582    7582       0    7584    7585    7586
    7585    7586    7586       0    7588    7589    7590    7589    7590    7590
       0    7592    7593    7594    7593    7594    7594       0    7596    7597
    7598    7597    7598    7598       0    7600    7601    7602    7601    7602
    7602       0    7604    7605    7606    7605    7606    7606       0    7608
    7609    7610    7609    7610    7610       0    7612    7613    7614    7613
    7614    7614       0    7616    7617    7618    7617    7618    7618       0
    7620    7621    7622    7621    7622    7622       0    7624    7625    7626
    7625    7626    7626       0    7628    7629    7630    7629    7630    7630
       0    7632    7633    7634    7633    7634    7634       0    7636    7637
    7638    7637    7638    7638       0    7640    7641    7642    7641    7642
    7642       0    7644    7645    7646    7645    7646    7646       0    7648
    7649    7650    7649    7650    7650       0    7652    7653    7654    7653
    7654    7654       0    7656    7657    7658    7657    7658    7658       0
    7660    7661    7662    7661    7662    7662       0    7664    7665    7666
    7665    7666    7666       0    7668    7669    7670    7669    7670    7670
       0    7672    7673    7674    7673    7674    7674       0    7676    7677
    7678    7677    7678    7678       0    7680    7681    7682    7681    7682
    7682       0    7684    7685    7686    7685    7686    7686       0
%FLAG HBOND_ACOEF
%FORMAT(5E16.8)

%FLAG HBOND_BCOEF
%FORMAT(5E16.8)

%FLAG HBCUT
%FORMAT(5E16.8)

%FLAG AMBER_ATOM_TYPE
%FORMAT(20a4)
N3  H   H   H   CX  HP  2C  H1  H1  OH  HO  C   O   N   H   XC  H1  2C  HC  HC  
3C  HC  CT  HC  HC  HC  CT  HC  HC  HC  C   O   N   H   XC  H1  CT  HC  HC  HC  
C   O   N   H   XC  H1  CT  HC  HC  CC  NB  CR  H5  NA  H   CW  H4  C   O   N   
H   CX  H1  2C  H1  H1  OH  HO  C   O2  O2  N3  H   H   H   CX  HP  2C  HC  HC  
3C  HC  CT  HC  HC  HC  CT  HC  HC  HC  C   O   N   H   XC  H1  3C  HC  CT  HC  
HC  HC  CT  HC  HC  HC  C   O   N   H   XC  H1  3C  H1  CT  HC  HC  HC  OH  HO  
C   O   N   H   XC  H1  C8  HC  HC  C8  HC  HC  C8  HC  HC  C8  HP  HP  N3  H   
H   H   C   O   N   H   CX  H1  2C  HC  HC  3C  HC  CT  HC  HC  HC  CT  HC  HC  
HC  C   O2  O2  cc  ss  cd  cc  cd  cf  c2  c6  c6  sy  o   o   c3  ns  c   o   
ns  hn  hn  ca  ca  ca  ca  ca  ca  br  ha  ha  hc  hc  hc  hc  h1  h1  h1  ha  
ha  ha  ha  Cl- Na+ Na+ Na+ Na+ Na+ Na+ Na+ Cl- Cl- Cl- Cl- Cl- Cl- Cl- OW  HW  
HW  EP  OW  HW  HW  EP  OW  HW  HW  EP  OW  HW  HW  EP  OW  HW  HW  EP  OW  HW  
HW  EP  OW  HW  HW  EP  OW  HW  HW  EP  OW  HW  HW  EP  OW  HW  HW  EP  OW  HW  
HW  EP  OW  HW  HW  EP  OW  HW  HW  EP  OW  HW  HW  EP  OW  HW  HW  EP  OW  HW  
HW  EP  OW  HW  HW  EP  OW  HW  HW  EP  OW  HW  HW  EP  OW  HW  HW  EP  OW  HW  
HW  EP  OW  HW  HW  EP  OW  HW  HW  EP  OW  HW  HW  EP  OW  HW  HW  EP  OW  HW  
HW  EP  OW  HW  HW  EP  OW  HW  HW  EP  OW  HW  HW  EP  OW  HW  HW  EP  OW  HW  
HW  EP  OW  HW  HW  EP  OW  HW  HW  EP  OW  HW  HW  EP  OW  HW  HW  EP  OW  HW  
HW  EP  OW  HW  HW  EP  OW  HW  HW  EP  OW  HW  HW  EP  OW  HW  HW  EP  OW  HW  
HW  EP  OW  HW  HW  EP  OW  HW  HW  EP  OW  HW  HW  EP  OW  HW  HW  EP  OW  HW  
HW  EP  OW  HW  HW  EP  OW  HW  HW  EP  OW  HW  HW  EP  OW  HW  HW  EP  OW  HW  
HW  EP  OW  HW  HW  EP  OW  HW  HW  EP  OW  HW  HW  EP  OW  HW  HW  EP  OW  HW  
HW  EP  OW  HW  HW  EP  OW  HW  HW  EP  OW  HW  HW  EP  OW  HW  HW  EP  OW  HW  
HW  EP  OW  HW  HW  EP  OW  HW  HW  EP  OW  HW  HW  EP  OW  HW  HW  EP  OW  HW  
HW  EP  OW  HW  HW  EP  OW  HW  HW  EP  OW  HW  HW  EP  OW  HW  HW  EP  OW  HW  
HW  EP  OW  HW  HW  EP  OW  HW  HW  EP  OW  HW  HW  EP  OW  HW  HW  EP  OW  HW  
HW  EP  OW  HW  HW  EP  OW  HW  HW  EP  OW  HW  HW  EP  OW  HW  HW  EP  OW  HW  
HW  EP  OW  HW  HW  EP  OW  HW  HW  EP  OW  HW  HW  EP  OW  HW  HW  EP  OW  HW  
HW  EP  OW  HW  HW  EP  OW  HW  HW  EP  OW  HW  HW  EP  OW  HW  HW  EP  OW  HW  
HW  EP  OW  HW  HW  EP  OW  HW  HW  EP  OW  HW  HW  EP  OW  HW  HW  EP  OW  HW  
HW  EP  OW  HW  HW  EP  OW  HW  HW  EP  OW  HW  HW  EP  OW  HW  HW  EP  OW  HW  
HW  EP  OW  HW  HW  EP  OW  HW  HW  EP  OW  HW  HW  EP  OW  HW  HW  EP  OW  HW  
HW  EP  OW  HW  HW  EP  OW  HW  HW  EP  OW  HW  HW  EP  OW  HW  HW  EP  OW  HW  
HW  EP  OW  HW  HW  EP  OW  HW  HW  EP  OW  HW  HW  EP  OW  HW  HW  EP  OW  HW  
HW  EP  OW  HW  HW  EP  OW  HW  HW  EP  OW  HW  HW  EP  OW  HW  HW  EP  OW  HW  
HW  EP  OW  HW  HW  EP  OW  HW  HW  EP  OW  HW  HW  EP  OW  HW  HW  EP  OW  HW  
HW  EP  OW  HW  HW  EP  OW  HW  HW  EP  OW  HW  HW  EP  OW  HW  HW  EP  OW  HW  
HW  EP  OW  HW  HW  EP  OW  HW  HW  EP  OW  HW  HW  EP  OW  HW  HW  EP  OW  HW  
HW  EP  OW  HW  HW  EP  OW  HW  HW  EP  OW  HW  HW  EP  OW  HW  HW  EP  OW  HW  
HW  EP  OW  HW  HW  EP  OW  HW  HW  EP  OW  HW  HW  EP  OW  HW  HW  EP  OW  HW  
HW  EP  OW  HW  HW  EP  OW  HW  HW  EP  OW  HW  HW  EP  OW  HW  HW  EP  OW  HW  
HW  EP  OW  HW  HW  EP  OW  HW  HW  EP  OW  HW  HW  EP  OW  HW  HW  EP  OW  HW  
HW  EP  OW  HW  HW  EP  OW  HW  HW  EP  OW  HW  HW  EP  OW  HW  HW  EP  OW  HW  
HW  EP  OW  HW  HW  EP  OW  HW  HW  EP  OW  HW  HW  EP  OW  HW  HW  EP  OW  HW  
HW  EP  OW  HW  HW  EP  OW  HW  HW  EP  OW  HW  HW  EP  OW  HW  HW  EP  OW  HW  
HW  EP  OW  HW  HW  EP  OW  HW  HW  EP  OW  HW  HW  EP  OW  HW  HW  EP  OW  HW  
HW  EP  OW  HW  HW  EP  OW  HW  HW  EP  OW  HW  HW  EP  OW  HW  HW  EP  OW  HW  
HW  EP  OW  HW  HW  EP  OW  HW  HW  EP  OW  HW  HW  EP  OW  HW  HW  EP  OW  HW  
HW  EP  OW  HW  HW  EP  OW  HW  HW  EP  OW  HW  HW  EP  OW  HW  HW  EP  OW  HW  
HW  EP  OW  HW  HW  EP  OW  HW  HW  EP  OW  HW  HW  EP  OW  HW  HW  EP  OW  HW  
HW  EP  OW  HW  HW  EP  OW  HW  HW  EP  OW  HW  HW  EP  OW  HW  HW  EP  OW  HW  
HW  EP  OW  HW  HW  EP  OW  HW  HW  EP  OW  HW  HW  EP  OW  HW  HW  EP  OW  HW  
HW  EP  OW  HW  HW  EP  OW  HW  HW  EP  OW  HW  HW  EP  OW  HW  HW  EP  OW  HW  
HW  EP  OW  HW  HW  EP  OW  HW  HW  EP  OW  HW  HW  EP  OW  HW  HW  EP  OW  HW  
HW  EP  OW  HW  HW  EP  OW  HW  HW  EP  OW  HW  HW  EP  OW  HW  HW  EP  OW  HW  
HW  EP  OW  HW  HW  EP  OW  HW  HW  EP  OW  HW  HW  EP  OW  HW  HW  EP  OW  HW  
HW  EP  OW  HW  HW  EP  OW  HW  HW  EP  OW  HW  HW  EP  OW  HW  HW  EP  OW  HW  
HW  EP  OW  HW  HW  EP  OW  HW  HW  EP  OW  HW  HW  EP  OW  HW  HW  EP  OW  HW  
HW  EP  OW  HW  HW  EP  OW  HW  HW  EP  OW  HW  HW  EP  OW  HW  HW  EP  OW  HW  
HW  EP  OW  HW  HW  EP  OW  HW  HW  EP  OW  HW  HW  EP  OW  HW  HW  EP  OW  HW  
HW  EP  OW  HW  HW  EP  OW  HW  HW  EP  OW  HW  HW  EP  OW  HW  HW  EP  OW  HW  
HW  EP  OW  HW  HW  EP  OW  HW  HW  EP  OW  HW  HW  EP  OW  HW  HW  EP  OW  HW  
HW  EP  OW  HW  HW  EP  OW  HW  HW  EP  OW  HW  HW  EP  OW  HW  HW  EP  OW  HW  
HW  EP  OW  HW  HW  EP  OW  HW  HW  EP  OW  HW  HW  EP  OW  HW  HW  EP  OW  HW  
HW  EP  OW  HW  HW  EP  OW  HW  HW  EP  OW  HW  HW  EP  OW  HW  HW  EP  OW  HW  
HW  EP  OW  HW  HW  EP  OW  HW  HW  EP  OW  HW  HW  EP  OW  HW  HW  EP  OW  HW  
HW  EP  OW  HW  HW  EP  OW  HW  HW  EP  OW  HW  HW  EP  OW  HW  HW  EP  OW  HW  
HW  EP  OW  HW  HW  EP  OW  HW  HW  EP  OW  HW  HW  EP  OW  HW  HW  EP  OW  HW  
HW  EP  OW  HW  HW  EP  OW  HW  HW  EP  OW  HW  HW  EP  OW  HW  HW  EP  OW  HW  
HW  EP  OW  HW  HW  EP  OW  HW  HW  EP  OW  HW  HW  EP  OW  HW  HW  EP  OW  HW  
HW  EP  OW  HW  HW  EP  OW  HW  HW  EP  OW  HW  HW  EP  OW  HW  HW  EP  OW  HW  
HW  EP  OW  HW  HW  EP  OW  HW  HW  EP  OW  HW  HW  EP  OW  HW  HW  EP  OW  HW  
HW  EP  OW  HW  HW  EP  OW  HW  HW  EP  OW  HW  HW  EP  OW  HW  HW  EP  OW  HW  
HW  EP  OW  HW  HW  EP  OW  HW  HW  EP  OW  HW  HW  EP  OW  HW  HW  EP  OW  HW  
HW  EP  OW  HW  HW  EP  OW  HW  HW  EP  OW  HW  HW  EP  OW  HW  HW  EP  OW  HW  
HW  EP  OW  HW  HW  EP  OW  HW  HW  EP  OW  HW  HW  EP  OW  HW  HW  EP  OW  HW  
HW  EP  OW  HW  HW  EP  OW  HW  HW  EP  OW  HW  HW  EP  OW  HW  HW  EP  OW  HW  
HW  EP  OW  HW  HW  EP  OW  HW  HW  EP  OW  HW  HW  EP  OW  HW  HW  EP  OW  HW  
HW  EP  OW  HW  HW  EP  OW  HW  HW  EP  OW  HW  HW  EP  OW  HW  HW  EP  OW  HW  
HW  EP  OW  HW  HW  EP  OW  HW  HW  EP  OW  HW  HW  EP  OW  HW  HW  EP  OW  HW  
HW  EP  OW  HW  HW  EP  OW  HW  HW  EP  OW  HW  HW  EP  OW  HW  HW  EP  OW  HW  
HW  EP  OW  HW  HW  EP  OW  HW  HW  EP  OW  HW  HW  EP  OW  HW  HW  EP  OW  HW  
HW  EP  OW  HW  HW  EP  OW  HW  HW  EP  OW  HW  HW  EP  OW  HW  HW  EP  OW  HW  
HW  EP  OW  HW  HW  EP  OW  HW  HW  EP  OW  HW  HW  EP  OW  HW  HW  EP  OW  HW  
HW  EP  OW  HW  HW  EP  OW  HW  HW  EP  OW  HW  HW  EP  OW  HW  HW  EP  OW  HW  
HW  EP  OW  HW  HW  EP  OW  HW  HW  EP  OW  HW  HW  EP  OW  HW  HW  EP  OW  HW  
HW  EP  OW  HW  HW  EP  OW  HW  HW  EP  OW  HW  HW  EP  OW  HW  HW  EP  OW  HW  
HW  EP  OW  HW  HW  EP  OW  HW  HW  EP  OW  HW  HW  EP  OW  HW  HW  EP  OW  HW  
HW  EP  OW  HW  HW  EP  OW  HW  HW  EP  OW  HW  HW  EP  OW  HW  HW  EP  OW  HW  
HW  EP  OW  HW  HW  EP  OW  HW  HW  EP  OW  HW  HW  EP  OW  HW  HW  EP  OW  HW  
HW  EP  OW  HW  HW  EP  OW  HW  HW  EP  OW  HW  HW  EP  OW  HW  HW  EP  OW  HW  
HW  EP  OW  HW  HW  EP  OW  HW  HW  EP  OW  HW  HW  EP  OW  HW  HW  EP  OW  HW  
HW  EP  OW  HW  HW  EP  OW  HW  HW  EP  OW  HW  HW  EP  OW  HW  HW  EP  OW  HW  
HW  EP  OW  HW  HW  EP  OW  HW  HW  EP  OW  HW  HW  EP  OW  HW  HW  EP  OW  HW  
HW  EP  OW  HW  HW  EP  OW  HW  HW  EP  OW  HW  HW  EP  OW  HW  HW  EP  OW  HW  
HW  EP  OW  HW  HW  EP  OW  HW  HW  EP  OW  HW  HW  EP  OW  HW  HW  EP  OW  HW  
HW  EP  OW  HW  HW  EP  OW  HW  HW  EP  OW  HW  HW  EP  OW  HW  HW  EP  OW  HW  
HW  EP  OW  HW  HW  EP  OW  HW  HW  EP  OW  HW  HW  EP  OW  HW  HW  EP  OW  HW  
HW  EP  OW  HW  HW  EP  OW  HW  HW  EP  OW  HW  HW  EP  OW  HW  HW  EP  OW  HW  
HW  EP  OW  HW  HW  EP  OW  HW  HW  EP  OW  HW  HW  EP  OW  HW  HW  EP  OW  HW  
HW  EP  OW  HW  HW  EP  OW  HW  HW  EP  OW  HW  HW  EP  OW  HW  HW  EP  OW  HW  
HW  EP  OW  HW  HW  EP  OW  HW  HW  EP  OW  HW  HW  EP  OW  HW  HW  EP  OW  HW  
HW  EP  OW  HW  HW  EP  OW  HW  HW  EP  OW  HW  HW  EP  OW  HW  HW  EP  OW  HW  
HW  EP  OW  HW  HW  EP  OW  HW  HW  EP  OW  HW  HW  EP  OW  HW  HW  EP  OW  HW  
HW  EP  OW  HW  HW  EP  OW  HW  HW  EP  OW  HW  HW  EP  OW  HW  HW  EP  OW  HW  
HW  EP  OW  HW  HW  EP  OW  HW  HW  EP  OW  HW  HW  EP  OW  HW  HW  EP  OW  HW  
HW  EP  OW  HW  HW  EP  OW  HW  HW  EP  OW  HW  HW  EP  OW  HW  HW  EP  OW  HW  
HW  EP  OW  HW  HW  EP  OW  HW  HW  EP  OW  HW  HW  EP  OW  HW  HW  EP  OW  HW  
HW  EP  OW  HW  HW  EP  OW  HW  HW  EP  OW  HW  HW  EP  OW  HW  HW  EP  OW  HW  
HW  EP  OW  HW  HW  EP  OW  HW  HW  EP  OW  HW  HW  EP  OW  HW  HW  EP  OW  HW  
HW  EP  OW  HW  HW  EP  OW  HW  HW  EP  OW  HW  HW  EP  OW  HW  HW  EP  OW  HW  
HW  EP  OW  HW  HW  EP  OW  HW  HW  EP  OW  HW  HW  EP  OW  HW  HW  EP  OW  HW  
HW  EP  OW  HW  HW  EP  OW  HW  HW  EP  OW  HW  HW  EP  OW  HW  HW  EP  OW  HW  
HW  EP  OW  HW  HW  EP  OW  HW  HW  EP  OW  HW  HW  EP  OW  HW  HW  EP  OW  HW  
HW  EP  OW  HW  HW  EP  OW  HW  HW  EP  OW  HW  HW  EP  OW  HW  HW  EP  OW  HW  
HW  EP  OW  HW  HW  EP  OW  HW  HW  EP  OW  HW  HW  EP  OW  HW  HW  EP  OW  HW  
HW  EP  OW  HW  HW  EP  OW  HW  HW  EP  OW  HW  HW  EP  OW  HW  HW  EP  OW  HW  
HW  EP  OW  HW  HW  EP  OW  HW  HW  EP  OW  HW  HW  EP  OW  HW  HW  EP  OW  HW  
HW  EP  OW  HW  HW  EP  OW  HW  HW  EP  OW  HW  HW  EP  OW  HW  HW  EP  OW  HW  
HW  EP  OW  HW  HW  EP  OW  HW  HW  EP  OW  HW  HW  EP  OW  HW  HW  EP  OW  HW  
HW  EP  OW  HW  HW  EP  OW  HW  HW  EP  OW  HW  HW  EP  OW  HW  HW  EP  OW  HW  
HW  EP  OW  HW  HW  EP  OW  HW  HW  EP  OW  HW  HW  EP  OW  HW  HW  EP  OW  HW  
HW  EP  OW  HW  HW  EP  OW  HW  HW  EP  OW  HW  HW  EP  OW  HW  HW  EP  OW  HW  
HW  EP  OW  HW  HW  EP  OW  HW  HW  EP  OW  HW  HW  EP  OW  HW  HW  EP  OW  HW  
HW  EP  OW  HW  HW  EP  OW  HW  HW  EP  OW  HW  HW  EP  OW  HW  HW  EP  OW  HW  
HW  EP  OW  HW  HW  EP  OW  HW  HW  EP  OW  HW  HW  EP  OW  HW  HW  EP  OW  HW  
HW  EP  OW  HW  HW  EP  OW  HW  HW  EP  OW  HW  HW  EP  OW  HW  HW  EP  OW  HW  
HW  EP  OW  HW  HW  EP  OW  HW  HW  EP  OW  HW  HW  EP  OW  HW  HW  EP  OW  HW  
HW  EP  OW  HW  HW  EP  OW  HW  HW  EP  OW  HW  HW  EP  OW  HW  HW  EP  OW  HW  
HW  EP  OW  HW  HW  EP  OW  HW  HW  EP  OW  HW  HW  EP  OW  HW  HW  EP  OW  HW  
HW  EP  OW  HW  HW  EP  OW  HW  HW  EP  OW  HW  HW  EP  OW  HW  HW  EP  OW  HW  
HW  EP  OW  HW  HW  EP  OW  HW  HW  EP  OW  HW  HW  EP  OW  HW  HW  EP  OW  HW  
HW  EP  OW  HW  HW  EP  OW  HW  HW  EP  OW  HW  HW  EP  OW  HW  HW  EP  OW  HW  
HW  EP  OW  HW  HW  EP  OW  HW  HW  EP  OW  HW  HW  EP  OW  HW  HW  EP  OW  HW  
HW  EP  OW  HW  HW  EP  OW  HW  HW  EP  OW  HW  HW  EP  OW  HW  HW  EP  OW  HW  
HW  EP  OW  HW  HW  EP  OW  HW  HW  EP  OW  HW  HW  EP  OW  HW  HW  EP  OW  HW  
HW  EP  OW  HW  HW  EP  OW  HW  HW  EP  OW  HW  HW  EP  OW  HW  HW  EP  OW  HW  
HW  EP  OW  HW  HW  EP  OW  HW  HW  EP  OW  HW  HW  EP  OW  HW  HW  EP  OW  HW  
HW  EP  OW  HW  HW  EP  OW  HW  HW  EP  OW  HW  HW  EP  OW  HW  HW  EP  OW  HW  
HW  EP  OW  HW  HW  EP  OW  HW  HW  EP  OW  HW  HW  EP  OW  HW  HW  EP  OW  HW  
HW  EP  OW  HW  HW  EP  OW  HW  HW  EP  OW  HW  HW  EP  OW  HW  HW  EP  OW  HW  
HW  EP  OW  HW  HW  EP  OW  HW  HW  EP  OW  HW  HW  EP  OW  HW  HW  EP  OW  HW  
HW  EP  OW  HW  HW  EP  OW  HW  HW  EP  OW  HW  HW  EP  OW  HW  HW  EP  OW  HW  
HW  EP  OW  HW  HW  EP  OW  HW  HW  EP  OW  HW  HW  EP  OW  HW  HW  EP  OW  HW  
HW  EP  OW  HW  HW  EP  OW  HW  HW  EP  OW  HW  HW  EP  OW  HW  HW  EP  OW  HW  
HW  EP  OW  HW  HW  EP  OW  HW  HW  EP  OW  HW  HW  EP  OW  HW  HW  EP  OW  HW  
HW  EP  OW  HW  HW  EP  OW  HW  HW  EP  OW  HW  HW  EP  OW  HW  HW  EP  OW  HW  
HW  EP  OW  HW  HW  EP  OW  HW  HW  EP  OW  HW  HW  EP  OW  HW  HW  EP  OW  HW  
HW  EP  OW  HW  HW  EP  OW  HW  HW  EP  OW  HW  HW  EP  OW  HW  HW  EP  OW  HW  
HW  EP  OW  HW  HW  EP  OW  HW  HW  EP  OW  HW  HW  EP  OW  HW  HW  EP  OW  HW  
HW  EP  OW  HW  HW  EP  OW  HW  HW  EP  OW  HW  HW  EP  OW  HW  HW  EP  OW  HW  
HW  EP  OW  HW  HW  EP  OW  HW  HW  EP  OW  HW  HW  EP  OW  HW  HW  EP  OW  HW  
HW  EP  OW  HW  HW  EP  OW  HW  HW  EP  OW  HW  HW  EP  OW  HW  HW  EP  OW  HW  
HW  EP  OW  HW  HW  EP  OW  HW  HW  EP  OW  HW  HW  EP  OW  HW  HW  EP  OW  HW  
HW  EP  OW  HW  HW  EP  OW  HW  HW  EP  OW  HW  HW  EP  OW  HW  HW  EP  OW  HW  
HW  EP  OW  HW  HW  EP  OW  HW  HW  EP  OW  HW  HW  EP  OW  HW  HW  EP  OW  HW  
HW  EP  OW  HW  HW  EP  OW  HW  HW  EP  OW  HW  HW  EP  OW  HW  HW  EP  OW  HW  
HW  EP  OW  HW  HW  EP  OW  HW  HW  EP  OW  HW  HW  EP  OW  HW  HW  EP  OW  HW  
HW  EP  OW  HW  HW  EP  OW  HW  HW  EP  OW  HW  HW  EP  OW  HW  HW  EP  OW  HW  
HW  EP  OW  HW  HW  EP  OW  HW  HW  EP  OW  HW  HW  EP  OW  HW  HW  EP  OW  HW  
HW  EP  OW  HW  HW  EP  OW  HW  HW  EP  OW  HW  HW  EP  OW  HW  HW  EP  OW  HW  
HW  EP  OW  HW  HW  EP  OW  HW  HW  EP  OW  HW  HW  EP  OW  HW  HW  EP  OW  HW  
HW  EP  OW  HW  HW  EP  OW  HW  HW  EP  OW  HW  HW  EP  OW  HW  HW  EP  OW  HW  
HW  EP  OW  HW  HW  EP  OW  HW  HW  EP  OW  HW  HW  EP  OW  HW  HW  EP  OW  HW  
HW  EP  OW  HW  HW  EP  OW  HW  HW  EP  OW  HW  HW  EP  OW  HW  HW  EP  OW  HW  
HW  EP  OW  HW  HW  EP  OW  HW  HW  EP  OW  HW  HW  EP  OW  HW  HW  EP  OW  HW  
HW  EP  OW  HW  HW  EP  OW  HW  HW  EP  OW  HW  HW  EP  OW  HW  HW  EP  OW  HW  
HW  EP  OW  HW  HW  EP  OW  HW  HW  EP  OW  HW  HW  EP  OW  HW  HW  EP  OW  HW  
HW  EP  OW  HW  HW  EP  OW  HW  HW  EP  OW  HW  HW  EP  OW  HW  HW  EP  OW  HW  
HW  EP  OW  HW  HW  EP  OW  HW  HW  EP  OW  HW  HW  EP  OW  HW  HW  EP  OW  HW  
HW  EP  OW  HW  HW  EP  OW  HW  HW  EP  OW  HW  HW  EP  OW  HW  HW  EP  OW  HW  
HW  EP  OW  HW  HW  EP  OW  HW  HW  EP  OW  HW  HW  EP  OW  HW  HW  EP  OW  HW  
HW  EP  OW  HW  HW  EP  OW  HW  HW  EP  OW  HW  HW  EP  OW  HW  HW  EP  OW  HW  
HW  EP  OW  HW  HW  EP  OW  HW  HW  EP  OW  HW  HW  EP  OW  HW  HW  EP  OW  HW  
HW  EP  OW  HW  HW  EP  OW  HW  HW  EP  OW  HW  HW  EP  OW  HW  HW  EP  OW  HW  
HW  EP  OW  HW  HW  EP  OW  HW  HW  EP  OW  HW  HW  EP  OW  HW  HW  EP  OW  HW  
HW  EP  OW  HW  HW  EP  OW  HW  HW  EP  OW  HW  HW  EP  OW  HW  HW  EP  OW  HW  
HW  EP  OW  HW  HW  EP  OW  HW  HW  EP  OW  HW  HW  EP  OW  HW  HW  EP  OW  HW  
HW  EP  OW  HW  HW  EP  OW  HW  HW  EP  OW  HW  HW  EP  OW  HW  HW  EP  OW  HW  
HW  EP  OW  HW  HW  EP  OW  HW  HW  EP  OW  HW  HW  EP  OW  HW  HW  EP  OW  HW  
HW  EP  OW  HW  HW  EP  OW  HW  HW  EP  OW  HW  HW  EP  OW  HW  HW  EP  OW  HW  
HW  EP  OW  HW  HW  EP  OW  HW  HW  EP  OW  HW  HW  EP  OW  HW  HW  EP  OW  HW  
HW  EP  OW  HW  HW  EP  OW  HW  HW  EP  OW  HW  HW  EP  OW  HW  HW  EP  OW  HW  
HW  EP  OW  HW  HW  EP  OW  HW  HW  EP  OW  HW  HW  EP  OW  HW  HW  EP  OW  HW  
HW  EP  OW  HW  HW  EP  OW  HW  HW  EP  OW  HW  HW  EP  OW  HW  HW  EP  OW  HW  
HW  EP  OW  HW  HW  EP  OW  HW  HW  EP  OW  HW  HW  EP  OW  HW  HW  EP  OW  HW  
HW  EP  OW  HW  HW  EP  OW  HW  HW  EP  OW  HW  HW  EP  OW  HW  HW  EP  OW  HW  
HW  EP  OW  HW  HW  EP  OW  HW  HW  EP  OW  HW  HW  EP  OW  HW  HW  EP  OW  HW  
HW  EP  OW  HW  HW  EP  OW  HW  HW  EP  OW  HW  HW  EP  OW  HW  HW  EP  OW  HW  
HW  EP  OW  HW  HW  EP  OW  HW  HW  EP  OW  HW  HW  EP  OW  HW  HW  EP  OW  HW  
HW  EP  OW  HW  HW  EP  OW  HW  HW  EP  OW  HW  HW  EP  OW  HW  HW  EP  OW  HW  
HW  EP  OW  HW  HW  EP  OW  HW  HW  EP  OW  HW  HW  EP  OW  HW  HW  EP  OW  HW  
HW  EP  OW  HW  HW  EP  OW  HW  HW  EP  OW  HW  HW  EP  OW  HW  HW  EP  OW  HW  
HW  EP  OW  HW  HW  EP  OW  HW  HW  EP  OW  HW  HW  EP  OW  HW  HW  EP  OW  HW  
HW  EP  OW  HW  HW  EP  OW  HW  HW  EP  OW  HW  HW  EP  OW  HW  HW  EP  OW  HW  
HW  EP  OW  HW  HW  EP  OW  HW  HW  EP  OW  HW  HW  EP  OW  HW  HW  EP  OW  HW  
HW  EP  OW  HW  HW  EP  OW  HW  HW  EP  OW  HW  HW  EP  OW  HW  HW  EP  OW  HW  
HW  EP  OW  HW  HW  EP  OW  HW  HW  EP  OW  HW  HW  EP  OW  HW  HW  EP  OW  HW  
HW  EP  OW  HW  HW  EP  OW  HW  HW  EP  OW  HW  HW  EP  OW  HW  HW  EP  OW  HW  
HW  EP  OW  HW  HW  EP  OW  HW  HW  EP  OW  HW  HW  EP  OW  HW  HW  EP  OW  HW  
HW  EP  OW  HW  HW  EP  OW  HW  HW  EP  OW  HW  HW  EP  OW  HW  HW  EP  OW  HW  
HW  EP  OW  HW  HW  EP  OW  HW  HW  EP  OW  HW  HW  EP  OW  HW  HW  EP  OW  HW  
HW  EP  OW  HW  HW  EP  OW  HW  HW  EP  OW  HW  HW  EP  OW  HW  HW  EP  OW  HW  
HW  EP  OW  HW  HW  EP  OW  HW  HW  EP  OW  HW  HW  EP  OW  HW  HW  EP  OW  HW  
HW  EP  OW  HW  HW  EP  OW  HW  HW  EP  OW  HW  HW  EP  OW  HW  HW  EP  OW  HW  
HW  EP  OW  HW  HW  EP  OW  HW  HW  EP  OW  HW  HW  EP  OW  HW  HW  EP  OW  HW  
HW  EP  OW  HW  HW  EP  OW  HW  HW  EP  OW  HW  HW  EP  OW  HW  HW  EP  OW  HW  
HW  EP  OW  HW  HW  EP  OW  HW  HW  EP  OW  HW  HW  EP  OW  HW  HW  EP  OW  HW  
HW  EP  OW  HW  HW  EP  OW  HW  HW  EP  OW  HW  HW  EP  OW  HW  HW  EP  OW  HW  
HW  EP  OW  HW  HW  EP  OW  HW  HW  EP  OW  HW  HW  EP  OW  HW  HW  EP  OW  HW  
HW  EP  OW  HW  HW  EP  OW  HW  HW  EP  OW  HW  HW  EP  OW  HW  HW  EP  OW  HW  
HW  EP  OW  HW  HW  EP  OW  HW  HW  EP  OW  HW  HW  EP  OW  HW  HW  EP  OW  HW  
HW  EP  OW  HW  HW  EP  OW  HW  HW  EP  OW  HW  HW  EP  OW  HW  HW  EP  OW  HW  
HW  EP  OW  HW  HW  EP  OW  HW  HW  EP  OW  HW  HW  EP  OW  HW  HW  EP  OW  HW  
HW  EP  OW  HW  HW  EP  OW  HW  HW  EP  OW  HW  HW  EP  OW  HW  HW  EP  OW  HW  
HW  EP  OW  HW  HW  EP  OW  HW  HW  EP  OW  HW  HW  EP  OW  HW  HW  EP  OW  HW  
HW  EP  OW  HW  HW  EP  OW  HW  HW  EP  OW  HW  HW  EP  OW  HW  HW  EP  OW  HW  
HW  EP  OW  HW  HW  EP  OW  HW  HW  EP  OW  HW  HW  EP  OW  HW  HW  EP  OW  HW  
HW  EP  OW  HW  HW  EP  OW  HW  HW  EP  OW  HW  HW  EP  OW  HW  HW  EP  OW  HW  
HW  EP  OW  HW  HW  EP  OW  HW  HW  EP  OW  HW  HW  EP  OW  HW  HW  EP  OW  HW  
HW  EP  OW  HW  HW  EP  OW  HW  HW  EP  OW  HW  HW  EP  OW  HW  HW  EP  OW  HW  
HW  EP  OW  HW  HW  EP  OW  HW  HW  EP  OW  HW  HW  EP  OW  HW  HW  EP  OW  HW  
HW  EP  OW  HW  HW  EP  OW  HW  HW  EP  OW  HW  HW  EP  OW  HW  HW  EP  OW  HW  
HW  EP  OW  HW  HW  EP  OW  HW  HW  EP  OW  HW  HW  EP  OW  HW  HW  EP  OW  HW  
HW  EP  OW  HW  HW  EP  OW  HW  HW  EP  OW  HW  HW  EP  OW  HW  HW  EP  OW  HW  
HW  EP  OW  HW  HW  EP  OW  HW  HW  EP  OW  HW  HW  EP  OW  HW  HW  EP  OW  HW  
HW  EP  OW  HW  HW  EP  OW  HW  HW  EP  OW  HW  HW  EP  OW  HW  HW  EP  OW  HW  
HW  EP  OW  HW  HW  EP  OW  HW  HW  EP  OW  HW  HW  EP  OW  HW  HW  EP  OW  HW  
HW  EP  OW  HW  HW  EP  OW  HW  HW  EP  OW  HW  HW  EP  OW  HW  HW  EP  OW  HW  
HW  EP  OW  HW  HW  EP  OW  HW  HW  EP  OW  HW  HW  EP  OW  HW  HW  EP  OW  HW  
HW  EP  OW  HW  HW  EP  OW  HW  HW  EP  OW  HW  HW  EP  OW  HW  HW  EP  OW  HW  
HW  EP  OW  HW  HW  EP  OW  HW  HW  EP  OW  HW  HW  EP  OW  HW  HW  EP  OW  HW  
HW  EP  OW  HW  HW  EP  OW  HW  HW  EP  OW  HW  HW  EP  OW  HW  HW  EP  OW  HW  
HW  EP  OW  HW  HW  EP  OW  HW  HW  EP  OW  HW  HW  EP  OW  HW  HW  EP  OW  HW  
HW  EP  OW  HW  HW  EP  OW  HW  HW  EP  OW  HW  HW  EP  OW  HW  HW  EP  OW  HW  
HW  EP  OW  HW  HW  EP  OW  HW  HW  EP  OW  HW  HW  EP  OW  HW  HW  EP  OW  HW  
HW  EP  OW  HW  HW  EP  OW  HW  HW  EP  OW  HW  HW  EP  OW  HW  HW  EP  OW  HW  
HW  EP  OW  HW  HW  EP  OW  HW  HW  EP  OW  HW  HW  EP  OW  HW  HW  EP  OW  HW  
HW  EP  OW  HW  HW  EP  OW  HW  HW  EP  OW  HW  HW  EP  OW  HW  HW  EP  OW  HW  
HW  EP  OW  HW  HW  EP  OW  HW  HW  EP  OW  HW  HW  EP  OW  HW  HW  EP  OW  HW  
HW  EP  OW  HW  HW  EP  OW  HW  HW  EP  OW  HW  HW  EP  OW  HW  HW  EP  OW  HW  
HW  EP  OW  HW  HW  EP  OW  HW  HW  EP  OW  HW  HW  EP  OW  HW  HW  EP  OW  HW  
HW  EP  OW  HW  HW  EP  OW  HW  HW  EP  OW  HW  HW  EP  OW  HW  HW  EP  OW  HW  
HW  EP  OW  HW  HW  EP  OW  HW  HW  EP  OW  HW  HW  EP  OW  HW  HW  EP  OW  HW  
HW  EP  OW  HW  HW  EP  OW  HW  HW  EP  OW  HW  HW  EP  OW  HW  HW  EP  OW  HW  
HW  EP  OW  HW  HW  EP  OW  HW  HW  EP  OW  HW  HW  EP  OW  HW  HW  EP  OW  HW  
HW  EP  OW  HW  HW  EP  OW  HW  HW  EP  OW  HW  HW  EP  OW  HW  HW  EP  OW  HW  
HW  EP  OW  HW  HW  EP  OW  HW  HW  EP  OW  HW  HW  EP  OW  HW  HW  EP  OW  HW  
HW  EP  OW  HW  HW  EP  OW  HW  HW  EP  OW  HW  HW  EP  OW  HW  HW  EP  OW  HW  
HW  EP  OW  HW  HW  EP  OW  HW  HW  EP  OW  HW  HW  EP  OW  HW  HW  EP  OW  HW  
HW  EP  OW  HW  HW  EP  OW  HW  HW  EP  OW  HW  HW  EP  OW  HW  HW  EP  OW  HW  
HW  EP  OW  HW  HW  EP  OW  HW  HW  EP  OW  HW  HW  EP  OW  HW  HW  EP  OW  HW  
HW  EP  OW  HW  HW  EP  OW  HW  HW  EP  OW  HW  HW  EP  OW  HW  HW  EP  OW  HW  
HW  EP  OW  HW  HW  EP  OW  HW  HW  EP  OW  HW  HW  EP  OW  HW  HW  EP  OW  HW  
HW  EP  OW  HW  HW  EP  OW  HW  HW  EP  OW  HW  HW  EP  OW  HW  HW  EP  OW  HW  
HW  EP  OW  HW  HW  EP  OW  HW  HW  EP  OW  HW  HW  EP  OW  HW  HW  EP  OW  HW  
HW  EP  OW  HW  HW  EP  OW  HW  HW  EP  OW  HW  HW  EP  OW  HW  HW  EP  OW  HW  
HW  EP  OW  HW  HW  EP  OW  HW  HW  EP  OW  HW  HW  EP  OW  HW  HW  EP  OW  HW  
HW  EP  OW  HW  HW  EP  OW  HW  HW  EP  OW  HW  HW  EP  OW  HW  HW  EP  OW  HW  
HW  EP  OW  HW  HW  EP  OW  HW  HW  EP  OW  HW  HW  EP  OW  HW  HW  EP  OW  HW  
HW  EP  OW  HW  HW  EP  OW  HW  HW  EP  OW  HW  HW  EP  OW  HW  HW  EP  OW  HW  
HW  EP  OW  HW  HW  EP  OW  HW  HW  EP  OW  HW  HW  EP  OW  HW  HW  EP  OW  HW  
HW  EP  OW  HW  HW  EP  OW  HW  HW  EP  OW  HW  HW  EP  OW  HW  HW  EP  OW  HW  
HW  EP  OW  HW  HW  EP  OW  HW  HW  EP  OW  HW  HW  EP  OW  HW  HW  EP  OW  HW  
HW  EP  OW  HW  HW  EP  OW  HW  HW  EP  OW  HW  HW  EP  OW  HW  HW  EP  OW  HW  
HW  EP  OW  HW  HW  EP  OW  HW  HW  EP  OW  HW  HW  EP  OW  HW  HW  EP  OW  HW  
HW  EP  OW  HW  HW  EP  OW  HW  HW  EP  OW  HW  HW  EP  OW  HW  HW  EP  OW  HW  
HW  EP  OW  HW  HW  EP  OW  HW  HW  EP  OW  HW  HW  EP  OW  HW  HW  EP  OW  HW  
HW  EP  OW  HW  HW  EP  OW  HW  HW  EP  OW  HW  HW  EP  OW  HW  HW  EP  OW  HW  
HW  EP  OW  HW  HW  EP  OW  HW  HW  EP  OW  HW  HW  EP  OW  HW  HW  EP  OW  HW  
HW  EP  OW  HW  HW  EP  OW  HW  HW  EP  OW  HW  HW  EP  OW  HW  HW  EP  OW  HW  
HW  EP  OW  HW  HW  EP  OW  HW  HW  EP  OW  HW  HW  EP  OW  HW  HW  EP  OW  HW  
HW  EP  OW  HW  HW  EP  OW  HW  HW  EP  OW  HW  HW  EP  OW  HW  HW  EP  OW  HW  
HW  EP  OW  HW  HW  EP  OW  HW  HW  EP  OW  HW  HW  EP  OW  HW  HW  EP  OW  HW  
HW  EP  OW  HW  HW  EP  OW  HW  HW  EP  OW  HW  HW  EP  OW  HW  HW  EP  OW  HW  
HW  EP  OW  HW  HW  EP  OW  HW  HW  EP  OW  HW  HW  EP  OW  HW  HW  EP  OW  HW  
HW  EP  OW  HW  HW  EP  OW  HW  HW  EP  OW  HW  HW  EP  OW  HW  HW  EP  OW  HW  
HW  EP  OW  HW  HW  EP  OW  HW  HW  EP  OW  HW  HW  EP  OW  HW  HW  EP  OW  HW  
HW  EP  OW  HW  HW  EP  OW  HW  HW  EP  OW  HW  HW  EP  OW  HW  HW  EP  OW  HW  
HW  EP  OW  HW  HW  EP  OW  HW  HW  EP  OW  HW  HW  EP  OW  HW  HW  EP  OW  HW  
HW  EP  OW  HW  HW  EP  OW  HW  HW  EP  OW  HW  HW  EP  OW  HW  HW  EP  OW  HW  
HW  EP  OW  HW  HW  EP  OW  HW  HW  EP  OW  HW  HW  EP  OW  HW  HW  EP  OW  HW  
HW  EP  OW  HW  HW  EP  OW  HW  HW  EP  OW  HW  HW  EP  OW  HW  HW  EP  OW  HW  
HW  EP  OW  HW  HW  EP  OW  HW  HW  EP  OW  HW  HW  EP  OW  HW  HW  EP  OW  HW  
HW  EP  OW  HW  HW  EP  OW  HW  HW  EP  OW  HW  HW  EP  OW  HW  HW  EP  OW  HW  
HW  EP  OW  HW  HW  EP  OW  HW  HW  EP  OW  HW  HW  EP  OW  HW  HW  EP  OW  HW  
HW  EP  OW  HW  HW  EP  OW  HW  HW  EP  OW  HW  HW  EP  OW  HW  HW  EP  OW  HW  
HW  EP  OW  HW  HW  EP  OW  HW  HW  EP  OW  HW  HW  EP  OW  HW  HW  EP  OW  HW  
HW  EP  OW  HW  HW  EP  OW  HW  HW  EP  OW  HW  HW  EP  OW  HW  HW  EP  OW  HW  
HW  EP  OW  HW  HW  EP  OW  HW  HW  EP  OW  HW  HW  EP  OW  HW  HW  EP  OW  HW  
HW  EP  OW  HW  HW  EP  OW  HW  HW  EP  OW  HW  HW  EP  OW  HW  HW  EP  OW  HW  
HW  EP  OW  HW  HW  EP  OW  HW  HW  EP  OW  HW  HW  EP  OW  HW  HW  EP  OW  HW  
HW  EP  OW  HW  HW  EP  OW  HW  HW  EP  OW  HW  HW  EP  OW  HW  HW  EP  OW  HW  
HW  EP  OW  HW  HW  EP  OW  HW  HW  EP  OW  HW  HW  EP  OW  HW  HW  EP  OW  HW  
HW  EP  OW  HW  HW  EP  OW  HW  HW  EP  OW  HW  HW  EP  OW  HW  HW  EP  OW  HW  
HW  EP  OW  HW  HW  EP  OW  HW  HW  EP  OW  HW  HW  EP  OW  HW  HW  EP  OW  HW  
HW  EP  OW  HW  HW  EP  OW  HW  HW  EP  OW  HW  HW  EP  OW  HW  HW  EP  OW  HW  
HW  EP  OW  HW  HW  EP  OW  HW  HW  EP  OW  HW  HW  EP  OW  HW  HW  EP  OW  HW  
HW  EP  OW  HW  HW  EP  OW  HW  HW  EP  OW  HW  HW  EP  OW  HW  HW  EP  OW  HW  
HW  EP  OW  HW  HW  EP  OW  HW  HW  EP  OW  HW  HW  EP  OW  HW  HW  EP  OW  HW  
HW  EP  OW  HW  HW  EP  OW  HW  HW  EP  OW  HW  HW  EP  OW  HW  HW  EP  OW  HW  
HW  EP  OW  HW  HW  EP  OW  HW  HW  EP  OW  HW  HW  EP  OW  HW  HW  EP  OW  HW  
HW  EP  OW  HW  HW  EP  OW  HW  HW  EP  OW  HW  HW  EP  OW  HW  HW  EP  OW  HW  
HW  EP  OW  HW  HW  EP  OW  HW  HW  EP  OW  HW  HW  EP  OW  HW  HW  EP  OW  HW  
HW  EP  OW  HW  HW  EP  OW  HW  HW  EP  OW  HW  HW  EP  OW  HW  HW  EP  OW  HW  
HW  EP  OW  HW  HW  EP  OW  HW  HW  EP  OW  HW  HW  EP  OW  HW  HW  EP  OW  HW  
HW  EP  OW  HW  HW  EP  OW  HW  HW  EP  OW  HW  HW  EP  OW  HW  HW  EP  OW  HW  
HW  EP  OW  HW  HW  EP  OW  HW  HW  EP  OW  HW  HW  EP  OW  HW  HW  EP  OW  HW  
HW  EP  OW  HW  HW  EP  OW  HW  HW  EP  OW  HW  HW  EP  OW  HW  HW  EP  OW  HW  
HW  EP  OW  HW  HW  EP  OW  HW  HW  EP  OW  HW  HW  EP  OW  HW  HW  EP  OW  HW  
HW  EP  OW  HW  HW  EP  OW  HW  HW  EP  OW  HW  HW  EP  OW  HW  HW  EP  OW  HW  
HW  EP  OW  HW  HW  EP  OW  HW  HW  EP  OW  HW  HW  EP  OW  HW  HW  EP  OW  HW  
HW  EP  OW  HW  HW  EP  OW  HW  HW  EP  OW  HW  HW  EP  OW  HW  HW  EP  OW  HW  
HW  EP  OW  HW  HW  EP  OW  HW  HW  EP  OW  HW  HW  EP  OW  HW  HW  EP  OW  HW  
HW  EP  OW  HW  HW  EP  OW  HW  HW  EP  OW  HW  HW  EP  OW  HW  HW  EP  OW  HW  
HW  EP  OW  HW  HW  EP  OW  HW  HW  EP  OW  HW  HW  EP  OW  HW  HW  EP  OW  HW  
HW  EP  OW  HW  HW  EP  OW  HW  HW  EP  OW  HW  HW  EP  OW  HW  HW  EP  OW  HW  
HW  EP  OW  HW  HW  EP  OW  HW  HW  EP  OW  HW  HW  EP  OW  HW  HW  EP  OW  HW  
HW  EP  OW  HW  HW  EP  OW  HW  HW  EP  OW  HW  HW  EP  OW  HW  HW  EP  OW  HW  
HW  EP  OW  HW  HW  EP  OW  HW  HW  EP  OW  HW  HW  EP  OW  HW  HW  EP  OW  HW  
HW  EP  OW  HW  HW  EP  OW  HW  HW  EP  OW  HW  HW  EP  OW  HW  HW  EP  OW  HW  
HW  EP  OW  HW  HW  EP  OW  HW  HW  EP  OW  HW  HW  EP  OW  HW  HW  EP  OW  HW  
HW  EP  OW  HW  HW  EP  OW  HW  HW  EP  OW  HW  HW  EP  OW  HW  HW  EP  OW  HW  
HW  EP  OW  HW  HW  EP  OW  HW  HW  EP  OW  HW  HW  EP  OW  HW  HW  EP  OW  HW  
HW  EP  OW  HW  HW  EP  OW  HW  HW  EP  OW  HW  HW  EP  OW  HW  HW  EP  OW  HW  
HW  EP  OW  HW  HW  EP  OW  HW  HW  EP  OW  HW  HW  EP  OW  HW  HW  EP  OW  HW  
HW  EP  OW  HW  HW  EP  OW  HW  HW  EP  OW  HW  HW  EP  OW  HW  HW  EP  OW  HW  
HW  EP  OW  HW  HW  EP  OW  HW  HW  EP  OW  HW  HW  EP  OW  HW  HW  EP  OW  HW  
HW  EP  OW  HW  HW  EP  OW  HW  HW  EP  OW  HW  HW  EP  OW  HW  HW  EP  OW  HW  
HW  EP  OW  HW  HW  EP  OW  HW  HW  EP  OW  HW  HW  EP  OW  HW  HW  EP  OW  HW  
HW  EP  OW  HW  HW  EP  OW  HW  HW  EP  OW  HW  HW  EP  OW  HW  HW  EP  OW  HW  
HW  EP  OW  HW  HW  EP  OW  HW  HW  EP  OW  HW  HW  EP  OW  HW  HW  EP  OW  HW  
HW  EP  OW  HW  HW  EP  OW  HW  HW  EP  OW  HW  HW  EP  OW  HW  HW  EP  OW  HW  
HW  EP  OW  HW  HW  EP  OW  HW  HW  EP  OW  HW  HW  EP  OW  HW  HW  EP  OW  HW  
HW  EP  OW  HW  HW  EP  OW  HW  HW  EP  OW  HW  HW  EP  OW  HW  HW  EP  OW  HW  
HW  EP  OW  HW  HW  EP  OW  HW  HW  EP  OW  HW  HW  EP  OW  HW  HW  EP  OW  HW  
HW  EP  OW  HW  HW  EP  OW  HW  HW  EP  OW  HW  HW  EP  OW  HW  HW  EP  OW  HW  
HW  EP  OW  HW  HW  EP  OW  HW  HW  EP  OW  HW  HW  EP  OW  HW  HW  EP  OW  HW  
HW  EP  OW  HW  HW  EP  OW  HW  HW  EP  OW  HW  HW  EP  OW  HW  HW  EP  OW  HW  
HW  EP  OW  HW  HW  EP  OW  HW  HW  EP  OW  HW  HW  EP  OW  HW  HW  EP  OW  HW  
HW  EP  OW  HW  HW  EP  OW  HW  HW  EP  OW  HW  HW  EP  OW  HW  HW  EP  OW  HW  
HW  EP  OW  HW  HW  EP  OW  HW  HW  EP  OW  HW  HW  EP  OW  HW  HW  EP  OW  HW  
HW  EP  OW  HW  HW  EP  OW  HW  HW  EP  OW  HW  HW  EP  OW  HW  HW  EP  OW  HW  
HW  EP  OW  HW  HW  EP  OW  HW  HW  EP  OW  HW  HW  EP  OW  HW  HW  EP  OW  HW  
HW  EP  OW  HW  HW  EP  OW  HW  HW  EP  OW  HW  HW  EP  OW  HW  HW  EP  OW  HW  
HW  EP  OW  HW  HW  EP  OW  HW  HW  EP  OW  HW  HW  EP  OW  HW  HW  EP  OW  HW  
HW  EP  OW  HW  HW  EP  OW  HW  HW  EP  OW  HW  HW  EP  OW  HW  HW  EP  OW  HW  
HW  EP  OW  HW  HW  EP  OW  HW  HW  EP  OW  HW  HW  EP  OW  HW  HW  EP  OW  HW  
HW  EP  OW  HW  HW  EP  OW  HW  HW  EP  OW  HW  HW  EP  OW  HW  HW  EP  OW  HW  
HW  EP  OW  HW  HW  EP  OW  HW  HW  EP  OW  HW  HW  EP  OW  HW  HW  EP  OW  HW  
HW  EP  OW  HW  HW  EP  OW  HW  HW  EP  OW  HW  HW  EP  OW  HW  HW  EP  OW  HW  
HW  EP  OW  HW  HW  EP  OW  HW  HW  EP  OW  HW  HW  EP  OW  HW  HW  EP  OW  HW  
HW  EP  OW  HW  HW  EP  OW  HW  HW  EP  OW  HW  HW  EP  OW  HW  HW  EP  OW  HW  
HW  EP  OW  HW  HW  EP  OW  HW  HW  EP  OW  HW  HW  EP  OW  HW  HW  EP  OW  HW  
HW  EP  OW  HW  HW  EP  OW  HW  HW  EP  OW  HW  HW  EP  OW  HW  HW  EP  OW  HW  
HW  EP  OW  HW  HW  EP  OW  HW  HW  EP  OW  HW  HW  EP  OW  HW  HW  EP  OW  HW  
HW  EP  OW  HW  HW  EP  OW  HW  HW  EP  OW  HW  HW  EP  OW  HW  HW  EP  OW  HW  
HW  EP  OW  HW  HW  EP  OW  HW  HW  EP  OW  HW  HW  EP  OW  HW  HW  EP  OW  HW  
HW  EP  OW  HW  HW  EP  OW  HW  HW  EP  OW  HW  HW  EP  OW  HW  HW  EP  OW  HW  
HW  EP  OW  HW  HW  EP  OW  HW  HW  EP  OW  HW  HW  EP  OW  HW  HW  EP  OW  HW  
HW  EP  OW  HW  HW  EP  OW  HW  HW  EP  OW  HW  HW  EP  OW  HW  HW  EP  OW  HW  
HW  EP  OW  HW  HW  EP  OW  HW  HW  EP  OW  HW  HW  EP  OW  HW  HW  EP  OW  HW  
HW  EP  OW  HW  HW  EP  OW  HW  HW  EP  OW  HW  HW  EP  OW  HW  HW  EP  OW  HW  
HW  EP  OW  HW  HW  EP  OW  HW  HW  EP  OW  HW  HW  EP  OW  HW  HW  EP  OW  HW  
HW  EP  OW  HW  HW  EP  OW  HW  HW  EP  OW  HW  HW  EP  OW  HW  HW  EP  OW  HW  
HW  EP  OW  HW  HW  EP  OW  HW  HW  EP  OW  HW  HW  EP  OW  HW  HW  EP  OW  HW  
HW  EP  OW  HW  HW  EP  OW  HW  HW  EP  OW  HW  HW  EP  OW  HW  HW  EP  OW  HW  
HW  EP  OW  HW  HW  EP  OW  HW  HW  EP  OW  HW  HW  EP  OW  HW  HW  EP  OW  HW  
HW  EP  OW  HW  HW  EP  OW  HW  HW  EP  OW  HW  HW  EP  OW  HW  HW  EP  OW  HW  
HW  EP  OW  HW  HW  EP  OW  HW  HW  EP  OW  HW  HW  EP  OW  HW  HW  EP  OW  HW  
HW  EP  OW  HW  HW  EP  OW  HW  HW  EP  OW  HW  HW  EP  OW  HW  HW  EP  OW  HW  
HW  EP  OW  HW  HW  EP  OW  HW  HW  EP  OW  HW  HW  EP  OW  HW  HW  EP  OW  HW  
HW  EP  OW  HW  HW  EP  OW  HW  HW  EP  OW  HW  HW  EP  OW  HW  HW  EP  OW  HW  
HW  EP  OW  HW  HW  EP  OW  HW  HW  EP  OW  HW  HW  EP  OW  HW  HW  EP  OW  HW  
HW  EP  OW  HW  HW  EP  OW  HW  HW  EP  OW  HW  HW  EP  OW  HW  HW  EP  OW  HW  
HW  EP  OW  HW  HW  EP  OW  HW  HW  EP  OW  HW  HW  EP  OW  HW  HW  EP  OW  HW  
HW  EP  OW  HW  HW  EP  OW  HW  HW  EP  OW  HW  HW  EP  OW  HW  HW  EP  OW  HW  
HW  EP  OW  HW  HW  EP  OW  HW  HW  EP  OW  HW  HW  EP  OW  HW  HW  EP  OW  HW  
HW  EP  OW  HW  HW  EP  OW  HW  HW  EP  OW  HW  HW  EP  OW  HW  HW  EP  OW  HW  
HW  EP  OW  HW  HW  EP  OW  HW  HW  EP  OW  HW  HW  EP  OW  HW  HW  EP  OW  HW  
HW  EP  OW  HW  HW  EP  OW  HW  HW  EP  OW  HW  HW  EP  OW  HW  HW  EP  OW  HW  
HW  EP  OW  HW  HW  EP  OW  HW  HW  EP  OW  HW  HW  EP  OW  HW  HW  EP  OW  HW  
HW  EP  OW  HW  HW  EP  OW  HW  HW  EP  OW  HW  HW  EP  OW  HW  HW  EP  OW  HW  
HW  EP  OW  HW  HW  EP  OW  HW  HW  EP  OW  HW  HW  EP  OW  HW  HW  EP  OW  HW  
HW  EP  OW  HW  HW  EP  
%FLAG TREE_CHAIN_CLASSIFICATION
%FORMAT(20a4)
BLA BLA BLA BLA BLA BLA BLA BLA BLA BLA BLA BLA BLA M   E   M   E   3   E   E   
3   E   3   E   E   E   3   E   E   E   M   E   M   E   M   E   3   E   E   E   
M   E   M   E   M   E   3   E   E   B   E   S   E   B   E   B   E   M   E   BLA 
BLA BLA BLA BLA BLA BLA BLA BLA BLA BLA BLA BLA BLA BLA BLA BLA BLA BLA BLA BLA 
BLA BLA BLA BLA BLA BLA BLA BLA BLA BLA BLA BLA M   E   M   E   3   E   3   E   
E   E   3   E   E   E   M   E   M   E   M   E   3   E   3   E   E   E   S   E   
M   E   M   E   M   E   3   E   E   3   E   E   3   E   E   3   E   E   3   E   
E   E   M   E   BLA BLA BLA BLA BLA BLA BLA BLA BLA BLA BLA BLA BLA BLA BLA BLA 
BLA BLA BLA BLA BLA BLA BLA BLA BLA BLA BLA BLA BLA BLA BLA BLA BLA BLA BLA BLA 
BLA BLA BLA BLA BLA BLA BLA BLA BLA BLA BLA BLA BLA BLA BLA BLA BLA BLA BLA BLA 
BLA BLA BLA M   M   M   M   M   M   M   M   M   M   M   M   M   M   M   M   S   
E   E   M   S   E   E   M   S   E   E   M   S   E   E   M   S   E   E   M   S   
E   E   M   S   E   E   M   S   E   E   M   S   E   E   M   S   E   E   M   S   
E   E   M   S   E   E   M   S   E   E   M   S   E   E   M   S   E   E   M   S   
E   E   M   S   E   E   M   S   E   E   M   S   E   E   M   S   E   E   M   S   
E   E   M   S   E   E   M   S   E   E   M   S   E   E   M   S   E   E   M   S   
E   E   M   S   E   E   M   S   E   E   M   S   E   E   M   S   E   E   M   S   
E   E   M   S   E   E   M   S   E   E   M   S   E   E   M   S   E   E   M   S   
E   E   M   S   E   E   M   S   E   E   M   S   E   E   M   S   E   E   M   S   
E   E   M   S   E   E   M   S   E   E   M   S   E   E   M   S   E   E   M   S   
E   E   M   S   E   E   M   S   E   E   M   S   E   E   M   S   E   E   M   S   
E   E   M   S   E   E   M   S   E   E   M   S   E   E   M   S   E   E   M   S   
E   E   M   S   E   E   M   S   E   E   M   S   E   E   M   S   E   E   M   S   
E   E   M   S   E   E   M   S   E   E   M   S   E   E   M   S   E   E   M   S   
E   E   M   S   E   E   M   S   E   E   M   S   E   E   M   S   E   E   M   S   
E   E   M   S   E   E   M   S   E   E   M   S   E   E   M   S   E   E   M   S   
E   E   M   S   E   E   M   S   E   E   M   S   E   E   M   S   E   E   M   S   
E   E   M   S   E   E   M   S   E   E   M   S   E   E   M   S   E   E   M   S   
E   E   M   S   E   E   M   S   E   E   M   S   E   E   M   S   E   E   M   S   
E   E   M   S   E   E   M   S   E   E   M   S   E   E   M   S   E   E   M   S   
E   E   M   S   E   E   M   S   E   E   M   S   E   E   M   S   E   E   M   S   
E   E   M   S   E   E   M   S   E   E   M   S   E   E   M   S   E   E   M   S   
E   E   M   S   E   E   M   S   E   E   M   S   E   E   M   S   E   E   M   S   
E   E   M   S   E   E   M   S   E   E   M   S   E   E   M   S   E   E   M   S   
E   E   M   S   E   E   M   S   E   E   M   S   E   E   M   S   E   E   M   S   
E   E   M   S   E   E   M   S   E   E   M   S   E   E   M   S   E   E   M   S   
E   E   M   S   E   E   M   S   E   E   M   S   E   E   M   S   E   E   M   S   
E   E   M   S   E   E   M   S   E   E   M   S   E   E   M   S   E   E   M   S   
E   E   M   S   E   E   M   S   E   E   M   S   E   E   M   S   E   E   M   S   
E   E   M   S   E   E   M   S   E   E   M   S   E   E   M   S   E   E   M   S   
E   E   M   S   E   E   M   S   E   E   M   S   E   E   M   S   E   E   M   S   
E   E   M   S   E   E   M   S   E   E   M   S   E   E   M   S   E   E   M   S   
E   E   M   S   E   E   M   S   E   E   M   S   E   E   M   S   E   E   M   S   
E   E   M   S   E   E   M   S   E   E   M   S   E   E   M   S   E   E   M   S   
E   E   M   S   E   E   M   S   E   E   M   S   E   E   M   S   E   E   M   S   
E   E   M   S   E   E   M   S   E   E   M   S   E   E   M   S   E   E   M   S   
E   E   M   S   E   E   M   S   E   E   M   S   E   E   M   S   E   E   M   S   
E   E   M   S   E   E   M   S   E   E   M   S   E   E   M   S   E   E   M   S   
E   E   M   S   E   E   M   S   E   E   M   S   E   E   M   S   E   E   M   S   
E   E   M   S   E   E   M   S   E   E   M   S   E   E   M   S   E   E   M   S   
E   E   M   S   E   E   M   S   E   E   M   S   E   E   M   S   E   E   M   S   
E   E   M   S   E   E   M   S   E   E   M   S   E   E   M   S   E   E   M   S   
E   E   M   S   E   E   M   S   E   E   M   S   E   E   M   S   E   E   M   S   
E   E   M   S   E   E   M   S   E   E   M   S   E   E   M   S   E   E   M   S   
E   E   M   S   E   E   M   S   E   E   M   S   E   E   M   S   E   E   M   S   
E   E   M   S   E   E   M   S   E   E   M   S   E   E   M   S   E   E   M   S   
E   E   M   S   E   E   M   S   E   E   M   S   E   E   M   S   E   E   M   S   
E   E   M   S   E   E   M   S   E   E   M   S   E   E   M   S   E   E   M   S   
E   E   M   S   E   E   M   S   E   E   M   S   E   E   M   S   E   E   M   S   
E   E   M   S   E   E   M   S   E   E   M   S   E   E   M   S   E   E   M   S   
E   E   M   S   E   E   M   S   E   E   M   S   E   E   M   S   E   E   M   S   
E   E   M   S   E   E   M   S   E   E   M   S   E   E   M   S   E   E   M   S   
E   E   M   S   E   E   M   S   E   E   M   S   E   E   M   S   E   E   M   S   
E   E   M   S   E   E   M   S   E   E   M   S   E   E   M   S   E   E   M   S   
E   E   M   S   E   E   M   S   E   E   M   S   E   E   M   S   E   E   M   S   
E   E   M   S   E   E   M   S   E   E   M   S   E   E   M   S   E   E   M   S   
E   E   M   S   E   E   M   S   E   E   M   S   E   E   M   S   E   E   M   S   
E   E   M   S   E   E   M   S   E   E   M   S   E   E   M   S   E   E   M   S   
E   E   M   S   E   E   M   S   E   E   M   S   E   E   M   S   E   E   M   S   
E   E   M   S   E   E   M   S   E   E   M   S   E   E   M   S   E   E   M   S   
E   E   M   S   E   E   M   S   E   E   M   S   E   E   M   S   E   E   M   S   
E   E   M   S   E   E   M   S   E   E   M   S   E   E   M   S   E   E   M   S   
E   E   M   S   E   E   M   S   E   E   M   S   E   E   M   S   E   E   M   S   
E   E   M   S   E   E   M   S   E   E   M   S   E   E   M   S   E   E   M   S   
E   E   M   S   E   E   M   S   E   E   M   S   E   E   M   S   E   E   M   S   
E   E   M   S   E   E   M   S   E   E   M   S   E   E   M   S   E   E   M   S   
E   E   M   S   E   E   M   S   E   E   M   S   E   E   M   S   E   E   M   S   
E   E   M   S   E   E   M   S   E   E   M   S   E   E   M   S   E   E   M   S   
E   E   M   S   E   E   M   S   E   E   M   S   E   E   M   S   E   E   M   S   
E   E   M   S   E   E   M   S   E   E   M   S   E   E   M   S   E   E   M   S   
E   E   M   S   E   E   M   S   E   E   M   S   E   E   M   S   E   E   M   S   
E   E   M   S   E   E   M   S   E   E   M   S   E   E   M   S   E   E   M   S   
E   E   M   S   E   E   M   S   E   E   M   S   E   E   M   S   E   E   M   S   
E   E   M   S   E   E   M   S   E   E   M   S   E   E   M   S   E   E   M   S   
E   E   M   S   E   E   M   S   E   E   M   S   E   E   M   S   E   E   M   S   
E   E   M   S   E   E   M   S   E   E   M   S   E   E   M   S   E   E   M   S   
E   E   M   S   E   E   M   S   E   E   M   S   E   E   M   S   E   E   M   S   
E   E   M   S   E   E   M   S   E   E   M   S   E   E   M   S   E   E   M   S   
E   E   M   S   E   E   M   S   E   E   M   S   E   E   M   S   E   E   M   S   
E   E   M   S   E   E   M   S   E   E   M   S   E   E   M   S   E   E   M   S   
E   E   M   S   E   E   M   S   E   E   M   S   E   E   M   S   E   E   M   S   
E   E   M   S   E   E   M   S   E   E   M   S   E   E   M   S   E   E   M   S   
E   E   M   S   E   E   M   S   E   E   M   S   E   E   M   S   E   E   M   S   
E   E   M   S   E   E   M   S   E   E   M   S   E   E   M   S   E   E   M   S   
E   E   M   S   E   E   M   S   E   E   M   S   E   E   M   S   E   E   M   S   
E   E   M   S   E   E   M   S   E   E   M   S   E   E   M   S   E   E   M   S   
E   E   M   S   E   E   M   S   E   E   M   S   E   E   M   S   E   E   M   S   
E   E   M   S   E   E   M   S   E   E   M   S   E   E   M   S   E   E   M   S   
E   E   M   S   E   E   M   S   E   E   M   S   E   E   M   S   E   E   M   S   
E   E   M   S   E   E   M   S   E   E   M   S   E   E   M   S   E   E   M   S   
E   E   M   S   E   E   M   S   E   E   M   S   E   E   M   S   E   E   M   S   
E   E   M   S   E   E   M   S   E   E   M   S   E   E   M   S   E   E   M   S   
E   E   M   S   E   E   M   S   E   E   M   S   E   E   M   S   E   E   M   S   
E   E   M   S   E   E   M   S   E   E   M   S   E   E   M   S   E   E   M   S   
E   E   M   S   E   E   M   S   E   E   M   S   E   E   M   S   E   E   M   S   
E   E   M   S   E   E   M   S   E   E   M   S   E   E   M   S   E   E   M   S   
E   E   M   S   E   E   M   S   E   E   M   S   E   E   M   S   E   E   M   S   
E   E   M   S   E   E   M   S   E   E   M   S   E   E   M   S   E   E   M   S   
E   E   M   S   E   E   M   S   E   E   M   S   E   E   M   S   E   E   M   S   
E   E   M   S   E   E   M   S   E   E   M   S   E   E   M   S   E   E   M   S   
E   E   M   S   E   E   M   S   E   E   M   S   E   E   M   S   E   E   M   S   
E   E   M   S   E   E   M   S   E   E   M   S   E   E   M   S   E   E   M   S   
E   E   M   S   E   E   M   S   E   E   M   S   E   E   M   S   E   E   M   S   
E   E   M   S   E   E   M   S   E   E   M   S   E   E   M   S   E   E   M   S   
E   E   M   S   E   E   M   S   E   E   M   S   E   E   M   S   E   E   M   S   
E   E   M   S   E   E   M   S   E   E   M   S   E   E   M   S   E   E   M   S   
E   E   M   S   E   E   M   S   E   E   M   S   E   E   M   S   E   E   M   S   
E   E   M   S   E   E   M   S   E   E   M   S   E   E   M   S   E   E   M   S   
E   E   M   S   E   E   M   S   E   E   M   S   E   E   M   S   E   E   M   S   
E   E   M   S   E   E   M   S   E   E   M   S   E   E   M   S   E   E   M   S   
E   E   M   S   E   E   M   S   E   E   M   S   E   E   M   S   E   E   M   S   
E   E   M   S   E   E   M   S   E   E   M   S   E   E   M   S   E   E   M   S   
E   E   M   S   E   E   M   S   E   E   M   S   E   E   M   S   E   E   M   S   
E   E   M   S   E   E   M   S   E   E   M   S   E   E   M   S   E   E   M   S   
E   E   M   S   E   E   M   S   E   E   M   S   E   E   M   S   E   E   M   S   
E   E   M   S   E   E   M   S   E   E   M   S   E   E   M   S   E   E   M   S   
E   E   M   S   E   E   M   S   E   E   M   S   E   E   M   S   E   E   M   S   
E   E   M   S   E   E   M   S   E   E   M   S   E   E   M   S   E   E   M   S   
E   E   M   S   E   E   M   S   E   E   M   S   E   E   M   S   E   E   M   S   
E   E   M   S   E   E   M   S   E   E   M   S   E   E   M   S   E   E   M   S   
E   E   M   S   E   E   M   S   E   E   M   S   E   E   M   S   E   E   M   S   
E   E   M   S   E   E   M   S   E   E   M   S   E   E   M   S   E   E   M   S   
E   E   M   S   E   E   M   S   E   E   M   S   E   E   M   S   E   E   M   S   
E   E   M   S   E   E   M   S   E   E   M   S   E   E   M   S   E   E   M   S   
E   E   M   S   E   E   M   S   E   E   M   S   E   E   M   S   E   E   M   S   
E   E   M   S   E   E   M   S   E   E   M   S   E   E   M   S   E   E   M   S   
E   E   M   S   E   E   M   S   E   E   M   S   E   E   M   S   E   E   M   S   
E   E   M   S   E   E   M   S   E   E   M   S   E   E   M   S   E   E   M   S   
E   E   M   S   E   E   M   S   E   E   M   S   E   E   M   S   E   E   M   S   
E   E   M   S   E   E   M   S   E   E   M   S   E   E   M   S   E   E   M   S   
E   E   M   S   E   E   M   S   E   E   M   S   E   E   M   S   E   E   M   S   
E   E   M   S   E   E   M   S   E   E   M   S   E   E   M   S   E   E   M   S   
E   E   M   S   E   E   M   S   E   E   M   S   E   E   M   S   E   E   M   S   
E   E   M   S   E   E   M   S   E   E   M   S   E   E   M   S   E   E   M   S   
E   E   M   S   E   E   M   S   E   E   M   S   E   E   M   S   E   E   M   S   
E   E   M   S   E   E   M   S   E   E   M   S   E   E   M   S   E   E   M   S   
E   E   M   S   E   E   M   S   E   E   M   S   E   E   M   S   E   E   M   S   
E   E   M   S   E   E   M   S   E   E   M   S   E   E   M   S   E   E   M   S   
E   E   M   S   E   E   M   S   E   E   M   S   E   E   M   S   E   E   M   S   
E   E   M   S   E   E   M   S   E   E   M   S   E   E   M   S   E   E   M   S   
E   E   M   S   E   E   M   S   E   E   M   S   E   E   M   S   E   E   M   S   
E   E   M   S   E   E   M   S   E   E   M   S   E   E   M   S   E   E   M   S   
E   E   M   S   E   E   M   S   E   E   M   S   E   E   M   S   E   E   M   S   
E   E   M   S   E   E   M   S   E   E   M   S   E   E   M   S   E   E   M   S   
E   E   M   S   E   E   M   S   E   E   M   S   E   E   M   S   E   E   M   S   
E   E   M   S   E   E   M   S   E   E   M   S   E   E   M   S   E   E   M   S   
E   E   M   S   E   E   M   S   E   E   M   S   E   E   M   S   E   E   M   S   
E   E   M   S   E   E   M   S   E   E   M   S   E   E   M   S   E   E   M   S   
E   E   M   S   E   E   M   S   E   E   M   S   E   E   M   S   E   E   M   S   
E   E   M   S   E   E   M   S   E   E   M   S   E   E   M   S   E   E   M   S   
E   E   M   S   E   E   M   S   E   E   M   S   E   E   M   S   E   E   M   S   
E   E   M   S   E   E   M   S   E   E   M   S   E   E   M   S   E   E   M   S   
E   E   M   S   E   E   M   S   E   E   M   S   E   E   M   S   E   E   M   S   
E   E   M   S   E   E   M   S   E   E   M   S   E   E   M   S   E   E   M   S   
E   E   M   S   E   E   M   S   E   E   M   S   E   E   M   S   E   E   M   S   
E   E   M   S   E   E   M   S   E   E   M   S   E   E   M   S   E   E   M   S   
E   E   M   S   E   E   M   S   E   E   M   S   E   E   M   S   E   E   M   S   
E   E   M   S   E   E   M   S   E   E   M   S   E   E   M   S   E   E   M   S   
E   E   M   S   E   E   M   S   E   E   M   S   E   E   M   S   E   E   M   S   
E   E   M   S   E   E   M   S   E   E   M   S   E   E   M   S   E   E   M   S   
E   E   M   S   E   E   M   S   E   E   M   S   E   E   M   S   E   E   M   S   
E   E   M   S   E   E   M   S   E   E   M   S   E   E   M   S   E   E   M   S   
E   E   M   S   E   E   M   S   E   E   M   S   E   E   M   S   E   E   M   S   
E   E   M   S   E   E   M   S   E   E   M   S   E   E   M   S   E   E   M   S   
E   E   M   S   E   E   M   S   E   E   M   S   E   E   M   S   E   E   M   S   
E   E   M   S   E   E   M   S   E   E   M   S   E   E   M   S   E   E   M   S   
E   E   M   S   E   E   M   S   E   E   M   S   E   E   M   S   E   E   M   S   
E   E   M   S   E   E   M   S   E   E   M   S   E   E   M   S   E   E   M   S   
E   E   M   S   E   E   M   S   E   E   M   S   E   E   M   S   E   E   M   S   
E   E   M   S   E   E   M   S   E   E   M   S   E   E   M   S   E   E   M   S   
E   E   M   S   E   E   M   S   E   E   M   S   E   E   M   S   E   E   M   S   
E   E   M   S   E   E   M   S   E   E   M   S   E   E   M   S   E   E   M   S   
E   E   M   S   E   E   M   S   E   E   M   S   E   E   M   S   E   E   M   S   
E   E   M   S   E   E   M   S   E   E   M   S   E   E   M   S   E   E   M   S   
E   E   M   S   E   E   M   S   E   E   M   S   E   E   M   S   E   E   M   S   
E   E   M   S   E   E   M   S   E   E   M   S   E   E   M   S   E   E   M   S   
E   E   M   S   E   E   M   S   E   E   M   S   E   E   M   S   E   E   M   S   
E   E   M   S   E   E   M   S   E   E   M   S   E   E   M   S   E   E   M   S   
E   E   M   S   E   E   M   S   E   E   M   S   E   E   M   S   E   E   M   S   
E   E   M   S   E   E   M   S   E   E   M   S   E   E   M   S   E   E   M   S   
E   E   M   S   E   E   M   S   E   E   M   S   E   E   M   S   E   E   M   S   
E   E   M   S   E   E   M   S   E   E   M   S   E   E   M   S   E   E   M   S   
E   E   M   S   E   E   M   S   E   E   M   S   E   E   M   S   E   E   M   S   
E   E   M   S   E   E   M   S   E   E   M   S   E   E   M   S   E   E   M   S   
E   E   M   S   E   E   M   S   E   E   M   S   E   E   M   S   E   E   M   S   
E   E   M   S   E   E   M   S   E   E   M   S   E   E   M   S   E   E   M   S   
E   E   M   S   E   E   M   S   E   E   M   S   E   E   M   S   E   E   M   S   
E   E   M   S   E   E   M   S   E   E   M   S   E   E   M   S   E   E   M   S   
E   E   M   S   E   E   M   S   E   E   M   S   E   E   M   S   E   E   M   S   
E   E   M   S   E   E   M   S   E   E   M   S   E   E   M   S   E   E   M   S   
E   E   M   S   E   E   M   S   E   E   M   S   E   E   M   S   E   E   M   S   
E   E   M   S   E   E   M   S   E   E   M   S   E   E   M   S   E   E   M   S   
E   E   M   S   E   E   M   S   E   E   M   S   E   E   M   S   E   E   M   S   
E   E   M   S   E   E   M   S   E   E   M   S   E   E   M   S   E   E   M   S   
E   E   M   S   E   E   M   S   E   E   M   S   E   E   M   S   E   E   M   S   
E   E   M   S   E   E   M   S   E   E   M   S   E   E   M   S   E   E   M   S   
E   E   M   S   E   E   M   S   E   E   M   S   E   E   M   S   E   E   M   S   
E   E   M   S   E   E   M   S   E   E   M   S   E   E   M   S   E   E   M   S   
E   E   M   S   E   E   M   S   E   E   M   S   E   E   M   S   E   E   M   S   
E   E   M   S   E   E   M   S   E   E   M   S   E   E   M   S   E   E   M   S   
E   E   M   S   E   E   M   S   E   E   M   S   E   E   M   S   E   E   M   S   
E   E   M   S   E   E   M   S   E   E   M   S   E   E   M   S   E   E   M   S   
E   E   M   S   E   E   M   S   E   E   M   S   E   E   M   S   E   E   M   S   
E   E   M   S   E   E   M   S   E   E   M   S   E   E   M   S   E   E   M   S   
E   E   M   S   E   E   M   S   E   E   M   S   E   E   M   S   E   E   M   S   
E   E   M   S   E   E   M   S   E   E   M   S   E   E   M   S   E   E   M   S   
E   E   M   S   E   E   M   S   E   E   M   S   E   E   M   S   E   E   M   S   
E   E   M   S   E   E   M   S   E   E   M   S   E   E   M   S   E   E   M   S   
E   E   M   S   E   E   M   S   E   E   M   S   E   E   M   S   E   E   M   S   
E   E   M   S   E   E   M   S   E   E   M   S   E   E   M   S   E   E   M   S   
E   E   M   S   E   E   M   S   E   E   M   S   E   E   M   S   E   E   M   S   
E   E   M   S   E   E   M   S   E   E   M   S   E   E   M   S   E   E   M   S   
E   E   M   S   E   E   M   S   E   E   M   S   E   E   M   S   E   E   M   S   
E   E   M   S   E   E   M   S   E   E   M   S   E   E   M   S   E   E   M   S   
E   E   M   S   E   E   M   S   E   E   M   S   E   E   M   S   E   E   M   S   
E   E   M   S   E   E   M   S   E   E   M   S   E   E   M   S   E   E   M   S   
E   E   M   S   E   E   M   S   E   E   M   S   E   E   M   S   E   E   M   S   
E   E   M   S   E   E   M   S   E   E   M   S   E   E   M   S   E   E   M   S   
E   E   M   S   E   E   M   S   E   E   M   S   E   E   M   S   E   E   M   S   
E   E   M   S   E   E   M   S   E   E   M   S   E   E   M   S   E   E   M   S   
E   E   M   S   E   E   M   S   E   E   M   S   E   E   M   S   E   E   M   S   
E   E   M   S   E   E   M   S   E   E   M   S   E   E   M   S   E   E   M   S   
E   E   M   S   E   E   M   S   E   E   M   S   E   E   M   S   E   E   M   S   
E   E   M   S   E   E   M   S   E   E   M   S   E   E   M   S   E   E   M   S   
E   E   M   S   E   E   M   S   E   E   M   S   E   E   M   S   E   E   M   S   
E   E   M   S   E   E   M   S   E   E   M   S   E   E   M   S   E   E   M   S   
E   E   M   S   E   E   M   S   E   E   M   S   E   E   M   S   E   E   M   S   
E   E   M   S   E   E   M   S   E   E   M   S   E   E   M   S   E   E   M   S   
E   E   M   S   E   E   M   S   E   E   M   S   E   E   M   S   E   E   M   S   
E   E   M   S   E   E   M   S   E   E   M   S   E   E   M   S   E   E   M   S   
E   E   M   S   E   E   M   S   E   E   M   S   E   E   M   S   E   E   M   S   
E   E   M   S   E   E   M   S   E   E   M   S   E   E   M   S   E   E   M   S   
E   E   M   S   E   E   M   S   E   E   M   S   E   E   M   S   E   E   M   S   
E   E   M   S   E   E   M   S   E   E   M   S   E   E   M   S   E   E   M   S   
E   E   M   S   E   E   M   S   E   E   M   S   E   E   M   S   E   E   M   S   
E   E   M   S   E   E   M   S   E   E   M   S   E   E   M   S   E   E   M   S   
E   E   M   S   E   E   M   S   E   E   M   S   E   E   M   S   E   E   M   S   
E   E   M   S   E   E   M   S   E   E   M   S   E   E   M   S   E   E   M   S   
E   E   M   S   E   E   M   S   E   E   M   S   E   E   M   S   E   E   M   S   
E   E   M   S   E   E   M   S   E   E   M   S   E   E   M   S   E   E   M   S   
E   E   M   S   E   E   M   S   E   E   M   S   E   E   M   S   E   E   M   S   
E   E   M   S   E   E   M   S   E   E   M   S   E   E   M   S   E   E   M   S   
E   E   M   S   E   E   M   S   E   E   M   S   E   E   M   S   E   E   M   S   
E   E   M   S   E   E   M   S   E   E   M   S   E   E   M   S   E   E   M   S   
E   E   M   S   E   E   M   S   E   E   M   S   E   E   M   S   E   E   M   S   
E   E   M   S   E   E   M   S   E   E   M   S   E   E   M   S   E   E   M   S   
E   E   M   S   E   E   M   S   E   E   M   S   E   E   M   S   E   E   M   S   
E   E   M   S   E   E   M   S   E   E   M   S   E   E   M   S   E   E   M   S   
E   E   M   S   E   E   M   S   E   E   M   S   E   E   M   S   E   E   M   S   
E   E   M   S   E   E   M   S   E   E   M   S   E   E   M   S   E   E   M   S   
E   E   M   S   E   E   M   S   E   E   M   S   E   E   M   S   E   E   M   S   
E   E   M   S   E   E   M   S   E   E   M   S   E   E   M   S   E   E   M   S   
E   E   M   S   E   E   M   S   E   E   M   S   E   E   M   S   E   E   M   S   
E   E   M   S   E   E   M   S   E   E   M   S   E   E   M   S   E   E   M   S   
E   E   M   S   E   E   M   S   E   E   M   S   E   E   M   S   E   E   M   S   
E   E   M   S   E   E   M   S   E   E   M   S   E   E   M   S   E   E   M   S   
E   E   M   S   E   E   M   S   E   E   M   S   E   E   M   S   E   E   M   S   
E   E   M   S   E   E   M   S   E   E   M   S   E   E   M   S   E   E   M   S   
E   E   M   S   E   E   M   S   E   E   M   S   E   E   M   S   E   E   M   S   
E   E   M   S   E   E   M   S   E   E   M   S   E   E   M   S   E   E   M   S   
E   E   M   S   E   E   M   S   E   E   M   S   E   E   M   S   E   E   M   S   
E   E   M   S   E   E   M   S   E   E   M   S   E   E   M   S   E   E   M   S   
E   E   M   S   E   E   M   S   E   E   M   S   E   E   M   S   E   E   M   S   
E   E   M   S   E   E   M   S   E   E   M   S   E   E   M   S   E   E   M   S   
E   E   M   S   E   E   M   S   E   E   M   S   E   E   M   S   E   E   M   S   
E   E   M   S   E   E   M   S   E   E   M   S   E   E   M   S   E   E   M   S   
E   E   M   S   E   E   M   S   E   E   M   S   E   E   M   S   E   E   M   S   
E   E   M   S   E   E   M   S   E   E   M   S   E   E   M   S   E   E   M   S   
E   E   M   S   E   E   M   S   E   E   M   S   E   E   M   S   E   E   M   S   
E   E   M   S   E   E   M   S   E   E   M   S   E   E   M   S   E   E   M   S   
E   E   M   S   E   E   M   S   E   E   M   S   E   E   M   S   E   E   M   S   
E   E   M   S   E   E   M   S   E   E   M   S   E   E   M   S   E   E   M   S   
E   E   M   S   E   E   M   S   E   E   M   S   E   E   M   S   E   E   M   S   
E   E   M   S   E   E   M   S   E   E   M   S   E   E   M   S   E   E   M   S   
E   E   M   S   E   E   M   S   E   E   M   S   E   E   M   S   E   E   M   S   
E   E   M   S   E   E   M   S   E   E   M   S   E   E   M   S   E   E   M   S   
E   E   M   S   E   E   M   S   E   E   M   S   E   E   M   S   E   E   M   S   
E   E   M   S   E   E   M   S   E   E   M   S   E   E   M   S   E   E   M   S   
E   E   M   S   E   E   M   S   E   E   M   S   E   E   M   S   E   E   M   S   
E   E   M   S   E   E   M   S   E   E   M   S   E   E   M   S   E   E   M   S   
E   E   M   S   E   E   M   S   E   E   M   S   E   E   M   S   E   E   M   S   
E   E   M   S   E   E   M   S   E   E   M   S   E   E   M   S   E   E   M   S   
E   E   M   S   E   E   M   S   E   E   M   S   E   E   M   S   E   E   M   S   
E   E   M   S   E   E   M   S   E   E   M   S   E   E   M   S   E   E   M   S   
E   E   M   S   E   E   M   S   E   E   M   S   E   E   M   S   E   E   M   S   
E   E   M   S   E   E   M   S   E   E   M   S   E   E   M   S   E   E   M   S   
E   E   M   S   E   E   M   S   E   E   M   S   E   E   M   S   E   E   M   S   
E   E   M   S   E   E   M   S   E   E   M   S   E   E   M   S   E   E   M   S   
E   E   M   S   E   E   M   S   E   E   M   S   E   E   M   S   E   E   M   S   
E   E   M   S   E   E   M   S   E   E   M   S   E   E   M   S   E   E   M   S   
E   E   M   S   E   E   M   S   E   E   M   S   E   E   M   S   E   E   M   S   
E   E   M   S   E   E   M   S   E   E   M   S   E   E   M   S   E   E   M   S   
E   E   M   S   E   E   M   S   E   E   M   S   E   E   M   S   E   E   M   S   
E   E   M   S   E   E   M   S   E   E   M   S   E   E   M   S   E   E   M   S   
E   E   M   S   E   E   M   S   E   E   M   S   E   E   M   S   E   E   M   S   
E   E   M   S   E   E   M   S   E   E   M   S   E   E   M   S   E   E   M   S   
E   E   M   S   E   E   M   S   E   E   M   S   E   E   M   S   E   E   M   S   
E   E   M   S   E   E   M   S   E   E   M   S   E   E   M   S   E   E   M   S   
E   E   M   S   E   E   M   S   E   E   M   S   E   E   M   S   E   E   M   S   
E   E   M   S   E   E   M   S   E   E   M   S   E   E   M   S   E   E   M   S   
E   E   M   S   E   E   M   S   E   E   M   S   E   E   M   S   E   E   M   S   
E   E   M   S   E   E   M   S   E   E   M   S   E   E   M   S   E   E   M   S   
E   E   M   S   E   E   M   S   E   E   M   S   E   E   M   S   E   E   M   S   
E   E   M   S   E   E   M   S   E   E   M   S   E   E   M   S   E   E   M   S   
E   E   M   S   E   E   M   S   E   E   M   S   E   E   M   S   E   E   M   S   
E   E   M   S   E   E   M   S   E   E   M   S   E   E   M   S   E   E   M   S   
E   E   M   S   E   E   M   S   E   E   M   S   E   E   M   S   E   E   M   S   
E   E   M   S   E   E   M   S   E   E   M   S   E   E   M   S   E   E   M   S   
E   E   M   S   E   E   M   S   E   E   M   S   E   E   M   S   E   E   M   S   
E   E   M   S   E   E   M   S   E   E   M   S   E   E   M   S   E   E   M   S   
E   E   M   S   E   E   M   S   E   E   M   S   E   E   M   S   E   E   M   S   
E   E   M   S   E   E   M   S   E   E   M   S   E   E   M   S   E   E   M   S   
E   E   M   S   E   E   M   S   E   E   M   S   E   E   M   S   E   E   M   S   
E   E   M   S   E   E   M   S   E   E   M   S   E   E   M   S   E   E   M   S   
E   E   M   S   E   E   M   S   E   E   M   S   E   E   M   S   E   E   M   S   
E   E   M   S   E   E   M   S   E   E   M   S   E   E   M   S   E   E   M   S   
E   E   M   S   E   E   M   S   E   E   M   S   E   E   M   S   E   E   M   S   
E   E   M   S   E   E   M   S   E   E   M   S   E   E   M   S   E   E   M   S   
E   E   M   S   E   E   M   S   E   E   M   S   E   E   M   S   E   E   M   S   
E   E   M   S   E   E   M   S   E   E   M   S   E   E   M   S   E   E   M   S   
E   E   M   S   E   E   M   S   E   E   M   S   E   E   M   S   E   E   M   S   
E   E   M   S   E   E   M   S   E   E   M   S   E   E   M   S   E   E   M   S   
E   E   M   S   E   E   M   S   E   E   M   S   E   E   M   S   E   E   M   S   
E   E   M   S   E   E   M   S   E   E   M   S   E   E   M   S   E   E   M   S   
E   E   M   S   E   E   M   S   E   E   M   S   E   E   M   S   E   E   M   S   
E   E   M   S   E   E   M   S   E   E   M   S   E   E   M   S   E   E   M   S   
E   E   M   S   E   E   M   S   E   E   M   S   E   E   M   S   E   E   M   S   
E   E   M   S   E   E   M   S   E   E   M   S   E   E   M   S   E   E   M   S   
E   E   M   S   E   E   M   S   E   E   M   S   E   E   M   S   E   E   M   S   
E   E   M   S   E   E   M   S   E   E   M   S   E   E   M   S   E   E   M   S   
E   E   M   S   E   E   M   S   E   E   M   S   E   E   M   S   E   E   M   S   
E   E   M   S   E   E   M   S   E   E   M   S   E   E   M   S   E   E   M   S   
E   E   M   S   E   E   M   S   E   E   M   S   E   E   M   S   E   E   M   S   
E   E   M   S   E   E   M   S   E   E   M   S   E   E   M   S   E   E   M   S   
E   E   M   S   E   E   M   S   E   E   M   S   E   E   M   S   E   E   M   S   
E   E   M   S   E   E   M   S   E   E   M   S   E   E   M   S   E   E   M   S   
E   E   M   S   E   E   M   S   E   E   M   S   E   E   M   S   E   E   M   S   
E   E   M   S   E   E   M   S   E   E   M   S   E   E   M   S   E   E   M   S   
E   E   M   S   E   E   M   S   E   E   M   S   E   E   M   S   E   E   M   S   
E   E   M   S   E   E   M   S   E   E   M   S   E   E   M   S   E   E   M   S   
E   E   M   S   E   E   M   S   E   E   M   S   E   E   M   S   E   E   M   S   
E   E   M   S   E   E   M   S   E   E   M   S   E   E   M   S   E   E   M   S   
E   E   M   S   E   E   M   S   E   E   M   S   E   E   M   S   E   E   M   S   
E   E   M   S   E   E   M   S   E   E   M   S   E   E   M   S   E   E   M   S   
E   E   M   S   E   E   M   S   E   E   M   S   E   E   M   S   E   E   M   S   
E   E   M   S   E   E   M   S   E   E   M   S   E   E   M   S   E   E   M   S   
E   E   M   S   E   E   M   S   E   E   M   S   E   E   M   S   E   E   M   S   
E   E   M   S   E   E   M   S   E   E   M   S   E   E   M   S   E   E   M   S   
E   E   M   S   E   E   M   S   E   E   M   S   E   E   M   S   E   E   M   S   
E   E   M   S   E   E   M   S   E   E   M   S   E   E   M   S   E   E   M   S   
E   E   M   S   E   E   M   S   E   E   M   S   E   E   M   S   E   E   M   S   
E   E   M   S   E   E   M   S   E   E   M   S   E   E   M   S   E   E   M   S   
E   E   M   S   E   E   M   S   E   E   M   S   E   E   M   S   E   E   M   S   
E   E   M   S   E   E   M   S   E   E   M   S   E   E   M   S   E   E   M   S   
E   E   M   S   E   E   M   S   E   E   M   S   E   E   M   S   E   E   M   S   
E   E   M   S   E   E   M   S   E   E   M   S   E   E   M   S   E   E   M   S   
E   E   M   S   E   E   M   S   E   E   M   S   E   E   M   S   E   E   M   S   
E   E   M   S   E   E   M   S   E   E   M   S   E   E   M   S   E   E   M   S   
E   E   M   S   E   E   M   S   E   E   M   S   E   E   M   S   E   E   M   S   
E   E   M   S   E   E   M   S   E   E   M   S   E   E   M   S   E   E   M   S   
E   E   M   S   E   E   M   S   E   E   M   S   E   E   M   S   E   E   M   S   
E   E   M   S   E   E   M   S   E   E   M   S   E   E   M   S   E   E   M   S   
E   E   M   S   E   E   M   S   E   E   M   S   E   E   M   S   E   E   M   S   
E   E   M   S   E   E   M   S   E   E   M   S   E   E   M   S   E   E   M   S   
E   E   M   S   E   E   M   S   E   E   M   S   E   E   M   S   E   E   M   S   
E   E   M   S   E   E   M   S   E   E   M   S   E   E   M   S   E   E   M   S   
E   E   M   S   E   E   M   S   E   E   M   S   E   E   M   S   E   E   M   S   
E   E   M   S   E   E   M   S   E   E   M   S   E   E   M   S   E   E   M   S   
E   E   M   S   E   E   M   S   E   E   M   S   E   E   M   S   E   E   M   S   
E   E   M   S   E   E   M   S   E   E   M   S   E   E   M   S   E   E   M   S   
E   E   M   S   E   E   M   S   E   E   M   S   E   E   M   S   E   E   M   S   
E   E   M   S   E   E   M   S   E   E   M   S   E   E   M   S   E   E   M   S   
E   E   M   S   E   E   M   S   E   E   M   S   E   E   M   S   E   E   M   S   
E   E   M   S   E   E   M   S   E   E   M   S   E   E   M   S   E   E   M   S   
E   E   M   S   E   E   
%FLAG JOIN_ARRAY
%FORMAT(10I8)
       0       0       0       0       0       0       0       0       0       0
       0       0       0       0       0       0       0       0       0       0
       0       0       0       0       0       0       0       0       0       0
       0       0       0       0       0       0       0       0       0       0
       0       0       0       0       0       0       0       0       0       0
       0       0       0       0       0       0       0       0       0       0
       0       0       0       0       0       0       0       0       0       0
       0       0       0       0       0       0       0       0       0       0
       0       0       0       0       0       0       0       0       0       0
       0       0       0       0       0       0       0       0       0       0
       0       0       0       0       0       0       0       0       0       0
       0       0       0       0       0       0       0       0       0       0
       0       0       0       0       0       0       0       0       0       0
       0       0       0       0       0       0       0       0       0       0
       0       0       0       0       0       0       0       0       0       0
       0       0       0       0       0       0       0       0       0       0
       0       0       0       0       0       0       0       0       0       0
       0       0       0       0       0       0       0       0       0       0
       0       0       0       0       0       0       0       0       0       0
       0       0       0       0       0       0       0       0       0       0
       0       0       0       0       0       0       0       0       0       0
       0       0       0       0       0       0       0       0       0       0
       0       0       0       0       0       0       0       0       0       0
       0       0       0       0       0       0       0       0       0       0
       0       0       0       0       0       0       0       0       0       0
       0       0       0       0       0       0       0       0       0       0
       0       0       0       0       0       0       0       0       0       0
       0       0       0       0       0       0       0       0       0       0
       0       0       0       0       0       0       0       0       0       0
       0       0       0       0       0       0       0       0       0       0
       0       0       0       0       0       0       0       0       0       0
       0       0       0       0       0       0       0       0       0       0
       0       0       0       0       0       0       0       0       0       0
       0       0       0       0       0       0       0       0       0       0
       0       0       0       0       0       0       0       0       0       0
       0       0       0       0       0       0       0       0       0       0
       0       0       0       0       0       0       0       0       0       0
       0       0       0       0       0       0       0       0       0       0
       0       0       0       0       0       0       0       0       0       0
       0       0       0       0       0       0       0       0       0       0
       0       0       0       0       0       0       0       0       0       0
       0       0       0       0       0       0       0       0       0       0
       0       0       0       0       0       0       0       0       0       0
       0       0       0       0       0       0       0       0       0       0
       0       0       0       0       0       0       0       0       0       0
       0       0       0       0       0       0       0       0       0       0
       0       0       0       0       0       0       0       0       0       0
       0       0       0       0       0       0       0       0       0       0
       0       0       0       0       0       0       0       0       0       0
       0       0       0       0       0       0       0       0       0       0
       0       0       0       0       0       0       0       0       0       0
       0       0       0       0       0       0       0       0       0       0
       0       0       0       0       0       0       0       0       0       0
       0       0       0       0       0       0       0       0       0       0
       0       0       0       0       0       0       0       0       0       0
       0       0       0       0       0       0       0       0       0       0
       0       0       0       0       0       0       0       0       0       0
       0       0       0       0       0       0       0       0       0       0
       0       0       0       0       0       0       0       0       0       0
       0       0       0       0       0       0       0       0       0       0
       0       0       0       0       0       0       0       0       0       0
       0       0       0       0       0       0       0       0       0       0
       0       0       0       0       0       0       0       0       0       0
       0       0       0       0       0       0       0       0       0       0
       0       0       0       0       0       0       0       0       0       0
       0       0       0       0       0       0       0       0       0       0
       0       0       0       0       0       0       0       0       0       0
       0       0       0       0       0       0       0       0       0       0
       0       0       0       0       0       0       0       0       0       0
       0       0       0       0       0       0       0       0       0       0
       0       0       0       0       0       0       0       0       0       0
       0       0       0       0       0       0       0       0       0       0
       0       0       0       0       0       0       0       0       0       0
       0       0       0       0       0       0       0       0       0       0
       0       0       0       0       0       0       0       0       0       0
       0       0       0       0       0       0       0       0       0       0
       0       0       0       0       0       0       0       0       0       0
       0       0       0       0       0       0       0       0       0       0
       0       0       0       0       0       0       0       0       0       0
       0       0       0       0       0       0       0       0       0       0
       0       0       0       0       0       0       0       0       0       0
       0       0       0       0       0       0       0       0       0       0
       0       0       0       0       0       0       0       0       0       0
       0       0       0       0       0       0       0       0       0       0
       0       0       0       0       0       0       0       0       0       0
       0       0       0       0       0       0       0       0       0       0
       0       0       0       0       0       0       0       0       0       0
       0       0       0       0       0       0       0       0       0       0
       0       0       0       0       0       0       0       0       0       0
       0       0       0       0       0       0       0       0       0       0
       0       0       0       0       0       0       0       0       0       0
       0       0       0       0       0       0       0       0       0       0
       0       0       0       0       0       0       0       0       0       0
       0       0       0       0       0       0       0       0       0       0
       0       0       0       0       0       0       0       0       0       0
       0       0       0       0       0       0       0       0       0       0
       0       0       0       0       0       0       0       0       0       0
       0       0       0       0       0       0       0       0       0       0
       0       0       0       0       0       0       0       0       0       0
       0       0       0       0       0       0       0       0       0       0
       0       0       0       0       0       0       0       0       0       0
       0       0       0       0       0       0       0       0       0       0
       0       0       0       0       0       0       0       0       0       0
       0       0       0       0       0       0       0       0       0       0
       0       0       0       0       0       0       0       0       0       0
       0       0       0       0       0       0       0       0       0       0
       0       0       0       0       0       0       0       0       0       0
       0       0       0       0       0       0       0       0       0       0
       0       0       0       0       0       0       0       0       0       0
       0       0       0       0       0       0       0       0       0       0
       0       0       0       0       0       0       0       0       0       0
       0       0       0       0       0       0       0       0       0       0
       0       0       0       0       0       0       0       0       0       0
       0       0       0       0       0       0       0       0       0       0
       0       0       0       0       0       0       0       0       0       0
       0       0       0       0       0       0       0       0       0       0
       0       0       0       0       0       0       0       0       0       0
       0       0       0       0       0       0       0       0       0       0
       0       0       0       0       0       0       0       0       0       0
       0       0       0       0       0       0       0       0       0       0
       0       0       0       0       0       0       0       0       0       0
       0       0       0       0       0       0       0       0       0       0
       0       0       0       0       0       0       0       0       0       0
       0       0       0       0       0       0       0       0       0       0
       0       0       0       0       0       0       0       0       0       0
       0       0       0       0       0       0       0       0       0       0
       0       0       0       0       0       0       0       0       0       0
       0       0       0       0       0       0       0       0       0       0
       0       0       0       0       0       0       0       0       0       0
       0       0       0       0       0       0       0       0       0       0
       0       0       0       0       0       0       0       0       0       0
       0       0       0       0       0       0       0       0       0       0
       0       0       0       0       0       0       0       0       0       0
       0       0       0       0       0       0       0       0       0       0
       0       0       0       0       0       0       0       0       0       0
       0       0       0       0       0       0       0       0       0       0
       0       0       0       0       0       0       0       0       0       0
       0       0       0       0       0       0       0       0       0       0
       0       0       0       0       0       0       0       0       0       0
       0       0       0       0       0       0       0       0       0       0
       0       0       0       0       0       0       0       0       0       0
       0       0       0       0       0       0       0       0       0       0
       0       0       0       0       0       0       0       0       0       0
       0       0       0       0       0       0       0       0       0       0
       0       0       0       0       0       0       0       0       0       0
       0       0       0       0       0       0       0       0       0       0
       0       0       0       0       0       0       0       0       0       0
       0       0       0       0       0       0       0       0       0       0
       0       0       0       0       0       0       0       0       0       0
       0       0       0       0       0       0       0       0       0       0
       0       0       0       0       0       0       0       0       0       0
       0       0       0       0       0       0       0       0       0       0
       0       0       0       0       0       0       0       0       0       0
       0       0       0       0       0       0       0       0       0       0
       0       0       0       0       0       0       0       0       0       0
       0       0       0       0       0       0       0       0       0       0
       0       0       0       0       0       0       0       0       0       0
       0       0       0       0       0       0       0       0       0       0
       0       0       0       0       0       0       0       0       0       0
       0       0       0       0       0       0       0       0       0       0
       0       0       0       0       0       0       0       0       0       0
       0       0       0       0       0       0       0       0       0       0
       0       0       0       0       0       0       0       0       0       0
       0       0       0       0       0       0       0       0       0       0
       0       0       0       0       0       0       0       0       0       0
       0       0       0       0       0       0       0       0       0       0
       0       0       0       0       0       0       0       0       0       0
       0       0       0       0       0       0       0       0       0       0
       0       0       0       0       0       0       0       0       0       0
       0       0       0       0       0       0       0       0       0       0
       0       0       0       0       0       0       0       0       0       0
       0       0       0       0       0       0       0       0       0       0
       0       0       0       0       0       0       0       0       0       0
       0       0       0       0       0       0       0       0       0       0
       0       0       0       0       0       0       0       0       0       0
       0       0       0       0       0       0       0       0       0       0
       0       0       0       0       0       0       0       0       0       0
       0       0       0       0       0       0       0       0       0       0
       0       0       0       0       0       0       0       0       0       0
       0       0       0       0       0       0       0       0       0       0
       0       0       0       0       0       0       0       0       0       0
       0       0       0       0       0       0       0       0       0       0
       0       0       0       0       0       0       0       0       0       0
       0       0       0       0       0       0       0       0       0       0
       0       0       0       0       0       0       0       0       0       0
       0       0       0       0       0       0       0       0       0       0
       0       0       0       0       0       0       0       0       0       0
       0       0       0       0       0       0       0       0       0       0
       0       0       0       0       0       0       0       0       0       0
       0       0       0       0       0       0       0       0       0       0
       0       0       0       0       0       0       0       0       0       0
       0       0       0       0       0       0       0       0       0       0
       0       0       0       0       0       0       0       0       0       0
       0       0       0       0       0       0       0       0       0       0
       0       0       0       0       0       0       0       0       0       0
       0       0       0       0       0       0       0       0       0       0
       0       0       0       0       0       0       0       0       0       0
       0       0       0       0       0       0       0       0       0       0
       0       0       0       0       0       0       0       0       0       0
       0       0       0       0       0       0       0       0       0       0
       0       0       0       0       0       0       0       0       0       0
       0       0       0       0       0       0       0       0       0       0
       0       0       0       0       0       0       0       0       0       0
       0       0       0       0       0       0       0       0       0       0
       0       0       0       0       0       0       0       0       0       0
       0       0       0       0       0       0       0       0       0       0
       0       0       0       0       0       0       0       0       0       0
       0       0       0       0       0       0       0       0       0       0
       0       0       0       0       0       0       0       0       0       0
       0       0       0       0       0       0       0       0       0       0
       0       0       0       0       0       0       0       0       0       0
       0       0       0       0       0       0       0       0       0       0
       0       0       0       0       0       0       0       0       0       0
       0       0       0       0       0       0       0       0       0       0
       0       0       0       0       0       0       0       0       0       0
       0       0       0       0       0       0       0       0       0       0
       0       0       0       0       0       0       0       0       0       0
       0       0       0       0       0       0       0       0       0       0
       0       0       0       0       0       0       0       0       0       0
       0       0       0       0       0       0       0       0       0       0
       0       0       0       0       0       0       0       0       0       0
       0       0       0       0       0       0       0       0       0       0
       0       0       0       0       0       0       0       0       0       0
       0       0       0       0       0       0       0       0       0       0
       0       0       0       0       0       0       0       0       0       0
       0       0       0       0       0       0       0       0       0       0
       0       0       0       0       0       0       0       0       0       0
       0       0       0       0       0       0       0       0       0       0
       0       0       0       0       0       0       0       0       0       0
       0       0       0       0       0       0       0       0       0       0
       0       0       0       0       0       0       0       0       0       0
       0       0       0       0       0       0       0       0       0       0
       0       0       0       0       0       0       0       0       0       0
       0       0       0       0       0       0       0       0       0       0
       0       0       0       0       0       0       0       0       0       0
       0       0       0       0       0       0       0       0       0       0
       0       0       0       0       0       0       0       0       0       0
       0       0       0       0       0       0       0       0       0       0
       0       0       0       0       0       0       0       0       0       0
       0       0       0       0       0       0       0       0       0       0
       0       0       0       0       0       0       0       0       0       0
       0       0       0       0       0       0       0       0       0       0
       0       0       0       0       0       0       0       0       0       0
       0       0       0       0       0       0       0       0       0       0
       0       0       0       0       0       0       0       0       0       0
       0       0       0       0       0       0       0       0       0       0
       0       0       0       0       0       0       0       0       0       0
       0       0       0       0       0       0       0       0       0       0
       0       0       0       0       0       0       0       0       0       0
       0       0       0       0       0       0       0       0       0       0
       0       0       0       0       0       0       0       0       0       0
       0       0       0       0       0       0       0       0       0       0
       0       0       0       0       0       0       0       0       0       0
       0       0       0       0       0       0       0       0       0       0
       0       0       0       0       0       0       0       0       0       0
       0       0       0       0       0       0       0       0       0       0
       0       0       0       0       0       0       0       0       0       0
       0       0       0       0       0       0       0       0       0       0
       0       0       0       0       0       0       0       0       0       0
       0       0       0       0       0       0       0       0       0       0
       0       0       0       0       0       0       0       0       0       0
       0       0       0       0       0       0       0       0       0       0
       0       0       0       0       0       0       0       0       0       0
       0       0       0       0       0       0       0       0       0       0
       0       0       0       0       0       0       0       0       0       0
       0       0       0       0       0       0       0       0       0       0
       0       0       0       0       0       0       0       0       0       0
       0       0       0       0       0       0       0       0       0       0
       0       0       0       0       0       0       0       0       0       0
       0       0       0       0       0       0       0       0       0       0
       0       0       0       0       0       0       0       0       0       0
       0       0       0       0       0       0       0       0       0       0
       0       0       0       0       0       0       0       0       0       0
       0       0       0       0       0       0       0       0       0       0
       0       0       0       0       0       0       0       0       0       0
       0       0       0       0       0       0       0       0       0       0
       0       0       0       0       0       0       0       0       0       0
       0       0       0       0       0       0       0       0       0       0
       0       0       0       0       0       0       0       0       0       0
       0       0       0       0       0       0       0       0       0       0
       0       0       0       0       0       0       0       0       0       0
       0       0       0       0       0       0       0       0       0       0
       0       0       0       0       0       0       0       0       0       0
       0       0       0       0       0       0       0       0       0       0
       0       0       0       0       0       0       0       0       0       0
       0       0       0       0       0       0       0       0       0       0
       0       0       0       0       0       0       0       0       0       0
       0       0       0       0       0       0       0       0       0       0
       0       0       0       0       0       0       0       0       0       0
       0       0       0       0       0       0       0       0       0       0
       0       0       0       0       0       0       0       0       0       0
       0       0       0       0       0       0       0       0       0       0
       0       0       0       0       0       0       0       0       0       0
       0       0       0       0       0       0       0       0       0       0
       0       0       0       0       0       0       0       0       0       0
       0       0       0       0       0       0       0       0       0       0
       0       0       0       0       0       0       0       0       0       0
       0       0       0       0       0       0       0       0       0       0
       0       0       0       0       0       0       0       0       0       0
       0       0       0       0       0       0       0       0       0       0
       0       0       0       0       0       0       0       0       0       0
       0       0       0       0       0       0       0       0       0       0
       0       0       0       0       0       0       0       0       0       0
       0       0       0       0       0       0       0       0       0       0
       0       0       0       0       0       0       0       0       0       0
       0       0       0       0       0       0       0       0       0       0
       0       0       0       0       0       0       0       0       0       0
       0       0       0       0       0       0       0       0       0       0
       0       0       0       0       0       0       0       0       0       0
       0       0       0       0       0       0       0       0       0       0
       0       0       0       0       0       0       0       0       0       0
       0       0       0       0       0       0       0       0       0       0
       0       0       0       0       0       0       0       0       0       0
       0       0       0       0       0       0       0       0       0       0
       0       0       0       0       0       0       0       0       0       0
       0       0       0       0       0       0       0       0       0       0
       0       0       0       0       0       0       0       0       0       0
       0       0       0       0       0       0       0       0       0       0
       0       0       0       0       0       0       0       0       0       0
       0       0       0       0       0       0       0       0       0       0
       0       0       0       0       0       0       0       0       0       0
       0       0       0       0       0       0       0       0       0       0
       0       0       0       0       0       0       0       0       0       0
       0       0       0       0       0       0       0       0       0       0
       0       0       0       0       0       0       0       0       0       0
       0       0       0       0       0       0       0       0       0       0
       0       0       0       0       0       0       0       0       0       0
       0       0       0       0       0       0       0       0       0       0
       0       0       0       0       0       0       0       0       0       0
       0       0       0       0       0       0       0       0       0       0
       0       0       0       0       0       0       0       0       0       0
       0       0       0       0       0       0       0       0       0       0
       0       0       0       0       0       0       0       0       0       0
       0       0       0       0       0       0       0       0       0       0
       0       0       0       0       0       0       0       0       0       0
       0       0       0       0       0       0       0       0       0       0
       0       0       0       0       0       0       0       0       0       0
       0       0       0       0       0       0       0       0       0       0
       0       0       0       0       0       0       0       0       0       0
       0       0       0       0       0       0       0       0       0       0
       0       0       0       0       0       0       0       0       0       0
       0       0       0       0       0       0       0       0       0       0
       0       0       0       0       0       0       0       0       0       0
       0       0       0       0       0       0       0       0       0       0
       0       0       0       0       0       0       0       0       0       0
       0       0       0       0       0       0       0       0       0       0
       0       0       0       0       0       0       0       0       0       0
       0       0       0       0       0       0       0       0       0       0
       0       0       0       0       0       0       0       0       0       0
       0       0       0       0       0       0       0       0       0       0
       0       0       0       0       0       0       0       0       0       0
       0       0       0       0       0       0       0       0       0       0
       0       0       0       0       0       0       0       0       0       0
       0       0       0       0       0       0       0       0       0       0
       0       0       0       0       0       0       0       0       0       0
       0       0       0       0       0       0       0       0       0       0
       0       0       0       0       0       0       0       0       0       0
       0       0       0       0       0       0       0       0       0       0
       0       0       0       0       0       0       0       0       0       0
       0       0       0       0       0       0       0       0       0       0
       0       0       0       0       0       0       0       0       0       0
       0       0       0       0       0       0       0       0       0       0
       0       0       0       0       0       0       0       0       0       0
       0       0       0       0       0       0       0       0       0       0
       0       0       0       0       0       0       0       0       0       0
       0       0       0       0       0       0       0       0       0       0
       0       0       0       0       0       0       0       0       0       0
       0       0       0       0       0       0       0       0       0       0
       0       0       0       0       0       0       0       0       0       0
       0       0       0       0       0       0       0       0       0       0
       0       0       0       0       0       0       0       0       0       0
       0       0       0       0       0       0       0       0       0       0
       0       0       0       0       0       0       0       0       0       0
       0       0       0       0       0       0       0       0       0       0
       0       0       0       0       0       0       0       0       0       0
       0       0       0       0       0       0       0       0       0       0
       0       0       0       0       0       0       0       0       0       0
       0       0       0       0       0       0       0       0       0       0
       0       0       0       0       0       0       0       0       0       0
       0       0       0       0       0       0       0       0       0       0
       0       0       0       0       0       0       0       0       0       0
       0       0       0       0       0       0       0       0       0       0
       0       0       0       0       0       0       0       0       0       0
       0       0       0       0       0       0       0       0       0       0
       0       0       0       0       0       0       0       0       0       0
       0       0       0       0       0       0       0       0       0       0
       0       0       0       0       0       0       0       0       0       0
       0       0       0       0       0       0       0       0       0       0
       0       0       0       0       0       0       0       0       0       0
       0       0       0       0       0       0       0       0       0       0
       0       0       0       0       0       0       0       0       0       0
       0       0       0       0       0       0       0       0       0       0
       0       0       0       0       0       0       0       0       0       0
       0       0       0       0       0       0       0       0       0       0
       0       0       0       0       0       0       0       0       0       0
       0       0       0       0       0       0       0       0       0       0
       0       0       0       0       0       0       0       0       0       0
       0       0       0       0       0       0       0       0       0       0
       0       0       0       0       0       0       0       0       0       0
       0       0       0       0       0       0       0       0       0       0
       0       0       0       0       0       0       0       0       0       0
       0       0       0       0       0       0       0       0       0       0
       0       0       0       0       0       0       0       0       0       0
       0       0       0       0       0       0       0       0       0       0
       0       0       0       0       0       0       0       0       0       0
       0       0       0       0       0       0       0       0       0       0
       0       0       0       0       0       0       0       0       0       0
       0       0       0       0       0       0       0       0       0       0
       0       0       0       0       0       0       0       0       0       0
       0       0       0       0       0       0       0       0       0       0
       0       0       0       0       0       0       0       0       0       0
       0       0       0       0       0       0       0       0       0       0
       0       0       0       0       0       0       0       0       0       0
       0       0       0       0       0       0       0       0       0       0
       0       0       0       0       0       0       0       0       0       0
       0       0       0       0       0       0       0       0       0       0
       0       0       0       0       0       0       0       0       0       0
       0       0       0       0       0       0       0       0       0       0
       0       0       0       0       0       0       0       0       0       0
       0       0       0       0       0       0       0       0       0       0
       0       0       0       0       0       0       0       0       0       0
       0       0       0       0       0       0       0       0       0       0
       0       0       0       0       0       0       0       0       0       0
       0       0       0       0       0       0       0       0       0       0
       0       0       0       0       0       0       0       0       0       0
       0       0       0       0       0       0       0       0       0       0
       0       0       0       0       0       0       0       0       0       0
       0       0       0       0       0       0       0       0       0       0
       0       0       0       0       0       0       0       0       0       0
       0       0       0       0       0       0       0       0       0       0
       0       0       0       0       0       0       0       0       0       0
       0       0       0       0       0       0       0       0       0       0
       0       0       0       0       0       0       0       0       0       0
       0       0       0       0       0       0       0       0       0       0
       0       0       0       0       0       0       0       0       0       0
       0       0       0       0       0       0       0       0       0       0
       0       0       0       0       0       0       0       0       0       0
       0       0       0       0       0       0       0       0       0       0
       0       0       0       0       0       0       0       0       0       0
       0       0       0       0       0       0       0       0       0       0
       0       0       0       0       0       0       0       0       0       0
       0       0       0       0       0       0       0       0       0       0
       0       0       0       0       0       0       0       0       0       0
       0       0       0       0       0       0       0       0       0       0
       0       0       0       0       0       0       0       0       0       0
       0       0       0       0       0       0       0       0       0       0
       0       0       0       0       0       0       0       0       0       0
       0       0       0       0       0       0       0       0       0       0
       0       0       0       0       0       0       0       0       0       0
       0       0       0       0       0       0       0       0       0       0
       0       0       0       0       0       0       0       0       0       0
       0       0       0       0       0       0       0       0       0       0
       0       0       0       0       0       0       0       0       0       0
       0       0       0       0       0       0       0       0       0       0
       0       0       0       0       0       0       0       0       0       0
       0       0       0       0       0       0       0       0       0       0
       0       0       0       0       0       0       0       0       0       0
       0       0       0       0       0       0       0       0       0       0
       0       0       0       0       0       0       0       0       0       0
       0       0       0       0       0       0       0       0       0       0
       0       0       0       0       0       0       0       0       0       0
       0       0       0       0       0       0       0       0       0       0
       0       0       0       0       0       0       0       0       0       0
       0       0       0       0       0       0       0       0       0       0
       0       0       0       0       0       0       0       0       0       0
       0       0       0       0       0       0       0       0       0       0
       0       0       0       0       0       0       0       0       0       0
       0       0       0       0       0       0       0       0       0       0
       0       0       0       0       0       0       0       0       0       0
       0       0       0       0       0       0       0       0       0       0
       0       0       0       0       0       0       0       0       0       0
       0       0       0       0       0       0       0       0       0       0
       0       0       0       0       0       0       0       0       0       0
       0       0       0       0       0       0       0       0       0       0
       0       0       0       0       0       0       0       0       0       0
       0       0       0       0       0       0       0       0       0       0
       0       0       0       0       0       0       0       0       0       0
       0       0       0       0       0       0       0       0       0       0
       0       0       0       0       0       0       0       0       0       0
       0       0       0       0       0       0       0       0       0       0
       0       0       0       0       0       0       0       0       0       0
       0       0       0       0       0       0       0       0       0       0
       0       0       0       0       0       0       0       0       0       0
       0       0       0       0       0       0       0       0       0       0
       0       0       0       0       0       0       0       0       0       0
       0       0       0       0       0       0       0       0       0       0
       0       0       0       0       0       0       0       0       0       0
       0       0       0       0       0       0       0       0       0       0
       0       0       0       0       0       0       0       0       0       0
       0       0       0       0       0       0       0       0       0       0
       0       0       0       0       0       0       0       0       0       0
       0       0       0       0       0       0       0       0       0       0
       0       0       0       0       0       0       0       0       0       0
       0       0       0       0       0       0       0       0       0       0
       0       0       0       0       0       0       0       0       0       0
       0       0       0       0       0       0       0       0       0       0
       0       0       0       0       0       0       0       0       0       0
       0       0       0       0       0       0       0       0       0       0
       0       0       0       0       0       0       0       0       0       0
       0       0       0       0       0       0       0       0       0       0
       0       0       0       0       0       0       0       0       0       0
       0       0       0       0       0       0       0       0       0       0
       0       0       0       0       0       0       0       0       0       0
       0       0       0       0       0       0       0       0       0       0
       0       0       0       0       0       0       0       0       0       0
       0       0       0       0       0       0       0       0       0       0
       0       0       0       0       0       0       0       0       0       0
       0       0       0       0       0       0       0       0       0       0
       0       0       0       0       0       0       0       0       0       0
       0       0       0       0       0       0       0       0       0       0
       0       0       0       0       0       0       0       0       0       0
       0       0       0       0       0       0       0       0       0       0
       0       0       0       0       0       0       0       0       0       0
       0       0       0       0       0       0       0       0       0       0
       0       0       0       0       0       0       0       0       0       0
       0       0       0       0       0       0       0       0       0       0
       0       0       0       0       0       0       0       0       0       0
       0       0       0       0       0       0       0       0       0       0
       0       0       0       0       0       0       0       0       0       0
       0       0       0       0       0       0       0       0       0       0
       0       0       0       0       0       0       0       0       0       0
       0       0       0       0       0       0       0       0       0       0
       0       0       0       0       0       0       0       0       0       0
       0       0       0       0       0       0       0       0       0       0
       0       0       0       0       0       0       0       0       0       0
       0       0       0       0       0       0       0       0       0       0
       0       0       0       0       0       0       0       0       0       0
       0       0       0       0       0       0       0       0       0       0
       0       0       0       0       0       0       0       0       0       0
       0       0       0       0       0       0       0       0       0       0
       0       0       0       0       0       0       0       0       0       0
       0       0       0       0       0       0       0       0       0       0
       0       0       0       0       0       0       0       0       0       0
       0       0       0       0       0       0       0       0       0       0
       0       0       0       0       0       0       0       0       0       0
       0       0       0       0       0       0       0       0       0       0
       0       0       0       0       0       0       0       0       0       0
       0       0       0       0       0       0       0       0       0       0
       0       0       0       0       0       0       0       0       0       0
       0       0       0       0       0       0       0       0       0       0
       0       0       0       0       0       0       0       0       0       0
       0       0       0       0       0       0       0       0       0       0
       0       0       0       0       0       0       0       0       0       0
       0       0       0       0       0       0       0       0       0       0
       0       0       0       0       0       0       0       0       0       0
       0       0       0       0       0       0       0       0       0       0
       0       0       0       0       0       0       0       0       0       0
       0       0       0       0       0       0       0       0       0       0
       0       0       0       0       0       0       0       0       0       0
       0       0       0       0       0       0       0       0       0       0
       0       0       0       0       0       0       0       0       0       0
       0       0       0       0       0       0       0       0       0       0
       0       0       0       0       0       0       0       0       0       0
       0       0       0       0       0       0       0       0       0       0
       0       0       0       0       0       0       0       0       0       0
       0       0       0       0       0       0       0       0       0       0
       0       0       0       0       0       0       0       0       0       0
       0       0       0       0       0       0       0       0       0       0
       0       0       0       0       0       0       0       0       0       0
       0       0       0       0       0       0       0       0       0       0
       0       0       0       0       0       0       0       0       0       0
       0       0       0       0       0       0       0       0       0       0
       0       0       0       0       0       0       0       0       0       0
       0       0       0       0       0       0       0       0       0       0
       0       0       0       0       0       0       0       0       0       0
       0       0       0       0       0       0       0       0       0       0
       0       0       0       0       0       0       0       0       0       0
       0       0       0       0       0       0       0       0       0       0
       0       0       0       0       0       0       0       0       0       0
       0       0       0       0       0       0       0       0       0       0
       0       0       0       0       0       0       0       0       0       0
       0       0       0       0       0       0       0       0       0       0
       0       0       0       0       0       0       0       0       0       0
       0       0       0       0       0       0       0       0       0       0
       0       0       0       0       0       0       0       0       0       0
       0       0       0       0       0       0       0       0       0       0
       0       0       0       0       0       0       0       0       0       0
       0       0       0       0       0       0       0       0       0       0
       0       0       0       0       0       0       0       0       0       0
       0       0       0       0       0       0       0       0       0       0
       0       0       0       0       0       0       0       0       0       0
       0       0       0       0       0       0       0       0       0       0
       0       0       0       0       0       0       0       0       0       0
       0       0       0       0       0       0       0       0       0       0
       0       0       0       0       0       0       0       0       0       0
       0       0       0       0       0       0       0       0       0       0
       0       0       0       0       0       0       0       0       0       0
       0       0       0       0       0       0       0       0       0       0
       0       0       0       0       0       0       0       0       0       0
       0       0       0       0       0       0       0       0       0       0
       0       0       0       0       0       0       0       0       0       0
       0       0       0       0       0       0       0       0       0       0
       0       0       0       0       0       0       0       0       0       0
       0       0       0       0       0       0       0       0       0       0
       0       0       0       0       0       0       0       0       0       0
       0       0       0       0       0       0       0       0       0       0
       0       0       0       0       0       0       0       0       0       0
       0       0       0       0       0       0       0       0       0       0
       0       0       0       0       0       0       0       0       0       0
       0       0       0       0       0       0       0       0       0       0
       0       0       0       0       0       0       0       0       0       0
       0       0       0       0       0       0       0       0       0       0
       0       0       0       0       0       0       0       0       0       0
       0       0       0       0       0       0       0       0       0       0
       0       0       0       0       0       0       0       0       0       0
       0       0       0       0       0       0       0       0       0       0
       0       0       0       0       0       0       0       0       0       0
       0       0       0       0       0       0       0       0       0       0
       0       0       0       0       0       0       0       0       0       0
       0       0       0       0       0       0       0       0       0       0
       0       0       0       0       0       0       0       0       0       0
       0       0       0       0       0       0       0       0       0       0
       0       0       0       0       0       0       0       0       0       0
       0       0       0       0       0       0       0       0       0       0
       0       0       0       0       0       0       0       0       0       0
       0       0       0       0       0       0       0       0       0       0
       0       0       0       0       0       0       0       0       0       0
       0       0       0       0       0       0       0       0       0       0
       0       0       0       0       0       0       0       0       0       0
       0       0       0       0       0       0       0       0       0       0
       0       0       0       0       0       0       0       0       0       0
       0       0       0       0       0       0       0       0       0       0
       0       0       0       0       0       0       0       0       0       0
       0       0       0       0       0       0       0       0       0       0
       0       0       0       0       0       0       0       0       0       0
       0       0       0       0       0       0       0       0       0       0
       0       0       0       0       0       0       0       0       0       0
       0       0       0       0       0       0       0       0       0       0
       0       0       0       0       0       0       0       0       0       0
       0       0       0       0       0       0       0       0       0       0
       0       0       0       0       0       0       0       0       0       0
       0       0       0       0       0       0       0       0       0       0
       0       0       0       0       0       0       0       0       0       0
       0       0       0       0       0       0       0       0       0       0
       0       0       0       0       0       0       0       0       0       0
       0       0       0       0       0       0       0       0       0       0
       0       0       0       0       0       0       0       0       0       0
       0       0       0       0       0       0       0       0       0       0
       0       0       0       0       0       0       0       0       0       0
       0       0       0       0       0       0       0       0       0       0
       0       0       0       0       0       0       0       0       0       0
       0       0       0       0       0       0       0       0       0       0
       0       0       0       0       0       0       0       0       0       0
       0       0       0       0       0       0       0       0       0       0
       0       0       0       0       0       0       0       0       0       0
       0       0       0       0       0       0       0       0       0       0
       0       0       0       0       0       0       0       0       0       0
       0       0       0       0       0       0       0       0       0       0
       0       0       0       0       0       0       0       0       0       0
       0       0       0       0       0       0       0       0       0       0
       0       0       0       0       0       0       0       0       0       0
       0       0       0       0       0       0       0       0       0       0
       0       0       0       0       0       0       0       0       0       0
       0       0       0       0       0       0       0       0       0       0
       0       0       0       0       0       0       0       0       0       0
       0       0       0       0       0       0       0       0       0       0
       0       0       0       0       0       0       0       0       0       0
       0       0       0       0       0       0       0       0       0       0
       0       0       0       0       0       0       0       0       0       0
       0       0       0       0       0       0       0       0       0       0
       0       0       0       0       0       0       0       0       0       0
       0       0       0       0       0       0       0       0       0       0
       0       0       0       0       0       0       0       0       0       0
       0       0       0       0       0       0       0       0       0       0
       0       0       0       0       0       0       0       0       0       0
       0       0       0       0       0       0       0       0       0       0
       0       0       0       0       0       0       0       0       0       0
       0       0       0       0       0       0       0       0       0       0
       0       0       0       0       0       0       0       0       0       0
       0       0       0       0       0       0       0       0       0       0
       0       0       0       0       0       0       0       0       0       0
       0       0       0       0       0       0       0       0       0       0
       0       0       0       0       0       0       0       0       0       0
       0       0       0       0       0       0       0       0       0       0
       0       0       0       0       0       0       0       0       0       0
       0       0       0       0       0       0       0       0       0       0
       0       0       0       0       0       0       0       0       0       0
       0       0       0       0       0       0       0       0       0       0
       0       0       0       0       0       0       0       0       0       0
       0       0       0       0       0       0       0       0       0       0
       0       0       0       0       0       0       0       0       0       0
       0       0       0       0       0       0       0       0       0       0
       0       0       0       0       0       0       0       0       0       0
       0       0       0       0       0       0       0       0       0       0
       0       0       0       0       0       0       0       0       0       0
       0       0       0       0       0       0       0       0       0       0
       0       0       0       0       0       0       0       0       0       0
       0       0       0       0       0       0       0       0       0       0
       0       0       0       0       0       0       0       0       0       0
       0       0       0       0       0       0       0       0       0       0
       0       0       0       0       0       0       0       0       0       0
       0       0       0       0       0       0       0       0       0       0
       0       0       0       0       0       0       0       0       0       0
       0       0       0       0       0       0       0       0       0       0
       0       0       0       0       0       0       0       0       0       0
       0       0       0       0       0       0       0       0       0       0
       0       0       0       0       0       0       0       0       0       0
       0       0       0       0       0       0       0       0       0       0
       0       0       0       0       0       0       0       0       0       0
       0       0       0       0       0       0       0       0       0       0
       0       0       0       0       0       0       0       0       0       0
       0       0       0       0       0       0       0       0       0       0
       0       0       0       0       0       0       0       0       0       0
       0       0       0       0       0       0       0       0       0       0
       0       0       0       0       0       0       0       0       0       0
       0       0       0       0       0       0       0       0       0       0
       0       0       0       0       0       0       0       0       0       0
       0       0       0       0       0       0       0       0       0       0
       0       0       0       0       0       0       0       0       0       0
       0       0       0       0       0       0       0       0       0       0
       0       0       0       0       0       0       0       0       0       0
       0       0       0       0       0       0       0       0       0       0
       0       0       0       0       0       0       0       0       0       0
       0       0       0       0       0       0       0       0       0       0
       0       0       0       0       0       0       0       0       0       0
       0       0       0       0       0       0       0       0       0       0
       0       0       0       0       0       0       0       0       0       0
       0       0       0       0       0       0       0       0       0       0
       0       0       0       0       0       0       0       0       0       0
       0       0       0       0       0       0       0       0       0       0
       0       0       0       0       0       0       0       0       0       0
       0       0       0       0       0       0       0       0       0       0
       0       0       0       0       0       0       0       0       0       0
       0       0       0       0       0       0       0       0       0       0
       0       0       0       0       0       0       0       0       0       0
       0       0       0       0       0       0       0       0       0       0
       0       0       0       0       0       0       0       0       0       0
       0       0       0       0       0       0       0       0       0       0
       0       0       0       0       0       0       0       0       0       0
       0       0       0       0       0       0       0       0       0       0
       0       0       0       0       0       0       0       0       0       0
       0       0       0       0       0       0       0       0       0       0
       0       0       0       0       0       0       0       0       0       0
       0       0       0       0       0       0       0       0       0       0
       0       0       0       0       0       0       0       0       0       0
       0       0       0       0       0       0       0       0       0       0
       0       0       0       0       0       0       0       0       0       0
       0       0       0       0       0       0       0       0       0       0
       0       0       0       0       0       0       0       0       0       0
       0       0       0       0       0       0       0       0       0       0
       0       0       0       0       0       0       0       0       0       0
       0       0       0       0       0       0       0       0       0       0
       0       0       0       0       0       0       0       0       0       0
       0       0       0       0       0       0       0       0       0       0
       0       0       0       0       0       0       0       0       0       0
       0       0       0       0       0       0       0       0       0       0
       0       0       0       0       0       0       0       0       0       0
       0       0       0       0       0       0       0       0       0       0
       0       0       0       0       0       0       0       0       0       0
       0       0       0       0       0       0       0       0       0       0
       0       0       0       0       0       0       0       0       0       0
       0       0       0       0       0       0       0       0       0       0
       0       0       0       0       0       0       0       0       0       0
       0       0       0       0       0       0       0       0       0       0
       0       0       0       0       0       0       0       0       0       0
       0       0       0       0       0       0       0       0       0       0
       0       0       0       0       0       0       0       0       0       0
       0       0       0       0       0       0       0       0       0       0
       0       0       0       0       0       0       0       0       0       0
       0       0       0       0       0       0       0       0       0       0
       0       0       0       0       0       0       0       0       0       0
       0       0       0       0       0       0       0       0       0       0
       0       0       0       0       0       0       0       0       0       0
       0       0       0       0       0       0       0       0       0       0
       0       0       0       0       0       0       0       0       0       0
       0       0       0       0       0       0       0       0       0       0
       0       0       0       0       0       0       0       0       0       0
       0       0       0       0       0       0       0       0       0       0
       0       0       0       0       0       0
%FLAG IROTAT
%FORMAT(10I8)
       0       0       0       0       0       0       0       0       0       0
       0       0       0       0       0       0       0       0       0       0
       0       0       0       0       0       0       0       0       0       0
       0       0       0       0       0       0       0       0       0       0
       0       0       0       0       0       0       0       0       0       0
       0       0       0       0       0       0       0       0       0       0
       0       0       0       0       0       0       0       0       0       0
       0       0       0       0       0       0       0       0       0       0
       0       0       0       0       0       0       0       0       0       0
       0       0       0       0       0       0       0       0       0       0
       0       0       0       0       0       0       0       0       0       0
       0       0       0       0       0       0       0       0       0       0
       0       0       0       0       0       0       0       0       0       0
       0       0       0       0       0       0       0       0       0       0
       0       0       0       0       0       0       0       0       0       0
       0       0       0       0       0       0       0       0       0       0
       0       0       0       0       0       0       0       0       0       0
       0       0       0       0       0       0       0       0       0       0
       0       0       0       0       0       0       0       0       0       0
       0       0       0       0       0       0       0       0       0       0
       0       0       0       0       0       0       0       0       0       0
       0       0       0       0       0       0       0       0       0       0
       0       0       0       0       0       0       0       0       0       0
       0       0       0       0       0       0       0       0       0       0
       0       0       0       0       0       0       0       0       0       0
       0       0       0       0       0       0       0       0       0       0
       0       0       0       0       0       0       0       0       0       0
       0       0       0       0       0       0       0       0       0       0
       0       0       0       0       0       0       0       0       0       0
       0       0       0       0       0       0       0       0       0       0
       0       0       0       0       0       0       0       0       0       0
       0       0       0       0       0       0       0       0       0       0
       0       0       0       0       0       0       0       0       0       0
       0       0       0       0       0       0       0       0       0       0
       0       0       0       0       0       0       0       0       0       0
       0       0       0       0       0       0       0       0       0       0
       0       0       0       0       0       0       0       0       0       0
       0       0       0       0       0       0       0       0       0       0
       0       0       0       0       0       0       0       0       0       0
       0       0       0       0       0       0       0       0       0       0
       0       0       0       0       0       0       0       0       0       0
       0       0       0       0       0       0       0       0       0       0
       0       0       0       0       0       0       0       0       0       0
       0       0       0       0       0       0       0       0       0       0
       0       0       0       0       0       0       0       0       0       0
       0       0       0       0       0       0       0       0       0       0
       0       0       0       0       0       0       0       0       0       0
       0       0       0       0       0       0       0       0       0       0
       0       0       0       0       0       0       0       0       0       0
       0       0       0       0       0       0       0       0       0       0
       0       0       0       0       0       0       0       0       0       0
       0       0       0       0       0       0       0       0       0       0
       0       0       0       0       0       0       0       0       0       0
       0       0       0       0       0       0       0       0       0       0
       0       0       0       0       0       0       0       0       0       0
       0       0       0       0       0       0       0       0       0       0
       0       0       0       0       0       0       0       0       0       0
       0       0       0       0       0       0       0       0       0       0
       0       0       0       0       0       0       0       0       0       0
       0       0       0       0       0       0       0       0       0       0
       0       0       0       0       0       0       0       0       0       0
       0       0       0       0       0       0       0       0       0       0
       0       0       0       0       0       0       0       0       0       0
       0       0       0       0       0       0       0       0       0       0
       0       0       0       0       0       0       0       0       0       0
       0       0       0       0       0       0       0       0       0       0
       0       0       0       0       0       0       0       0       0       0
       0       0       0       0       0       0       0       0       0       0
       0       0       0       0       0       0       0       0       0       0
       0       0       0       0       0       0       0       0       0       0
       0       0       0       0       0       0       0       0       0       0
       0       0       0       0       0       0       0       0       0       0
       0       0       0       0       0       0       0       0       0       0
       0       0       0       0       0       0       0       0       0       0
       0       0       0       0       0       0       0       0       0       0
       0       0       0       0       0       0       0       0       0       0
       0       0       0       0       0       0       0       0       0       0
       0       0       0       0       0       0       0       0       0       0
       0       0       0       0       0       0       0       0       0       0
       0       0       0       0       0       0       0       0       0       0
       0       0       0       0       0       0       0       0       0       0
       0       0       0       0       0       0       0       0       0       0
       0       0       0       0       0       0       0       0       0       0
       0       0       0       0       0       0       0       0       0       0
       0       0       0       0       0       0       0       0       0       0
       0       0       0       0       0       0       0       0       0       0
       0       0       0       0       0       0       0       0       0       0
       0       0       0       0       0       0       0       0       0       0
       0       0       0       0       0       0       0       0       0       0
       0       0       0       0       0       0       0       0       0       0
       0       0       0       0       0       0       0       0       0       0
       0       0       0       0       0       0       0       0       0       0
       0       0       0       0       0       0       0       0       0       0
       0       0       0       0       0       0       0       0       0       0
       0       0       0       0       0       0       0       0       0       0
       0       0       0       0       0       0       0       0       0       0
       0       0       0       0       0       0       0       0       0       0
       0       0       0       0       0       0       0       0       0       0
       0       0       0       0       0       0       0       0       0       0
       0       0       0       0       0       0       0       0       0       0
       0       0       0       0       0       0       0       0       0       0
       0       0       0       0       0       0       0       0       0       0
       0       0       0       0       0       0       0       0       0       0
       0       0       0       0       0       0       0       0       0       0
       0       0       0       0       0       0       0       0       0       0
       0       0       0       0       0       0       0       0       0       0
       0       0       0       0       0       0       0       0       0       0
       0       0       0       0       0       0       0       0       0       0
       0       0       0       0       0       0       0       0       0       0
       0       0       0       0       0       0       0       0       0       0
       0       0       0       0       0       0       0       0       0       0
       0       0       0       0       0       0       0       0       0       0
       0       0       0       0       0       0       0       0       0       0
       0       0       0       0       0       0       0       0       0       0
       0       0       0       0       0       0       0       0       0       0
       0       0       0       0       0       0       0       0       0       0
       0       0       0       0       0       0       0       0       0       0
       0       0       0       0       0       0       0       0       0       0
       0       0       0       0       0       0       0       0       0       0
       0       0       0       0       0       0       0       0       0       0
       0       0       0       0       0       0       0       0       0       0
       0       0       0       0       0       0       0       0       0       0
       0       0       0       0       0       0       0       0       0       0
       0       0       0       0       0       0       0       0       0       0
       0       0       0       0       0       0       0       0       0       0
       0       0       0       0       0       0       0       0       0       0
       0       0       0       0       0       0       0       0       0       0
       0       0       0       0       0       0       0       0       0       0
       0       0       0       0       0       0       0       0       0       0
       0       0       0       0       0       0       0       0       0       0
       0       0       0       0       0       0       0       0       0       0
       0       0       0       0       0       0       0       0       0       0
       0       0       0       0       0       0       0       0       0       0
       0       0       0       0       0       0       0       0       0       0
       0       0       0       0       0       0       0       0       0       0
       0       0       0       0       0       0       0       0       0       0
       0       0       0       0       0       0       0       0       0       0
       0       0       0       0       0       0       0       0       0       0
       0       0       0       0       0       0       0       0       0       0
       0       0       0       0       0       0       0       0       0       0
       0       0       0       0       0       0       0       0       0       0
       0       0       0       0       0       0       0       0       0       0
       0       0       0       0       0       0       0       0       0       0
       0       0       0       0       0       0       0       0       0       0
       0       0       0       0       0       0       0       0       0       0
       0       0       0       0       0       0       0       0       0       0
       0       0       0       0       0       0       0       0       0       0
       0       0       0       0       0       0       0       0       0       0
       0       0       0       0       0       0       0       0       0       0
       0       0       0       0       0       0       0       0       0       0
       0       0       0       0       0       0       0       0       0       0
       0       0       0       0       0       0       0       0       0       0
       0       0       0       0       0       0       0       0       0       0
       0       0       0       0       0       0       0       0       0       0
       0       0       0       0       0       0       0       0       0       0
       0       0       0       0       0       0       0       0       0       0
       0       0       0       0       0       0       0       0       0       0
       0       0       0       0       0       0       0       0       0       0
       0       0       0       0       0       0       0       0       0       0
       0       0       0       0       0       0       0       0       0       0
       0       0       0       0       0       0       0       0       0       0
       0       0       0       0       0       0       0       0       0       0
       0       0       0       0       0       0       0       0       0       0
       0       0       0       0       0       0       0       0       0       0
       0       0       0       0       0       0       0       0       0       0
       0       0       0       0       0       0       0       0       0       0
       0       0       0       0       0       0       0       0       0       0
       0       0       0       0       0       0       0       0       0       0
       0       0       0       0       0       0       0       0       0       0
       0       0       0       0       0       0       0       0       0       0
       0       0       0       0       0       0       0       0       0       0
       0       0       0       0       0       0       0       0       0       0
       0       0       0       0       0       0       0       0       0       0
       0       0       0       0       0       0       0       0       0       0
       0       0       0       0       0       0       0       0       0       0
       0       0       0       0       0       0       0       0       0       0
       0       0       0       0       0       0       0       0       0       0
       0       0       0       0       0       0       0       0       0       0
       0       0       0       0       0       0       0       0       0       0
       0       0       0       0       0       0       0       0       0       0
       0       0       0       0       0       0       0       0       0       0
       0       0       0       0       0       0       0       0       0       0
       0       0       0       0       0       0       0       0       0       0
       0       0       0       0       0       0       0       0       0       0
       0       0       0       0       0       0       0       0       0       0
       0       0       0       0       0       0       0       0       0       0
       0       0       0       0       0       0       0       0       0       0
       0       0       0       0       0       0       0       0       0       0
       0       0       0       0       0       0       0       0       0       0
       0       0       0       0       0       0       0       0       0       0
       0       0       0       0       0       0       0       0       0       0
       0       0       0       0       0       0       0       0       0       0
       0       0       0       0       0       0       0       0       0       0
       0       0       0       0       0       0       0       0       0       0
       0       0       0       0       0       0       0       0       0       0
       0       0       0       0       0       0       0       0       0       0
       0       0       0       0       0       0       0       0       0       0
       0       0       0       0       0       0       0       0       0       0
       0       0       0       0       0       0       0       0       0       0
       0       0       0       0       0       0       0       0       0       0
       0       0       0       0       0       0       0       0       0       0
       0       0       0       0       0       0       0       0       0       0
       0       0       0       0       0       0       0       0       0       0
       0       0       0       0       0       0       0       0       0       0
       0       0       0       0       0       0       0       0       0       0
       0       0       0       0       0       0       0       0       0       0
       0       0       0       0       0       0       0       0       0       0
       0       0       0       0       0       0       0       0       0       0
       0       0       0       0       0       0       0       0       0       0
       0       0       0       0       0       0       0       0       0       0
       0       0       0       0       0       0       0       0       0       0
       0       0       0       0       0       0       0       0       0       0
       0       0       0       0       0       0       0       0       0       0
       0       0       0       0       0       0       0       0       0       0
       0       0       0       0       0       0       0       0       0       0
       0       0       0       0       0       0       0       0       0       0
       0       0       0       0       0       0       0       0       0       0
       0       0       0       0       0       0       0       0       0       0
       0       0       0       0       0       0       0       0       0       0
       0       0       0       0       0       0       0       0       0       0
       0       0       0       0       0       0       0       0       0       0
       0       0       0       0       0       0       0       0       0       0
       0       0       0       0       0       0       0       0       0       0
       0       0       0       0       0       0       0       0       0       0
       0       0       0       0       0       0       0       0       0       0
       0       0       0       0       0       0       0       0       0       0
       0       0       0       0       0       0       0       0       0       0
       0       0       0       0       0       0       0       0       0       0
       0       0       0       0       0       0       0       0       0       0
       0       0       0       0       0       0       0       0       0       0
       0       0       0       0       0       0       0       0       0       0
       0       0       0       0       0       0       0       0       0       0
       0       0       0       0       0       0       0       0       0       0
       0       0       0       0       0       0       0       0       0       0
       0       0       0       0       0       0       0       0       0       0
       0       0       0       0       0       0       0       0       0       0
       0       0       0       0       0       0       0       0       0       0
       0       0       0       0       0       0       0       0       0       0
       0       0       0       0       0       0       0       0       0       0
       0       0       0       0       0       0       0       0       0       0
       0       0       0       0       0       0       0       0       0       0
       0       0       0       0       0       0       0       0       0       0
       0       0       0       0       0       0       0       0       0       0
       0       0       0       0       0       0       0       0       0       0
       0       0       0       0       0       0       0       0       0       0
       0       0       0       0       0       0       0       0       0       0
       0       0       0       0       0       0       0       0       0       0
       0       0       0       0       0       0       0       0       0       0
       0       0       0       0       0       0       0       0       0       0
       0       0       0       0       0       0       0       0       0       0
       0       0       0       0       0       0       0       0       0       0
       0       0       0       0       0       0       0       0       0       0
       0       0       0       0       0       0       0       0       0       0
       0       0       0       0       0       0       0       0       0       0
       0       0       0       0       0       0       0       0       0       0
       0       0       0       0       0       0       0       0       0       0
       0       0       0       0       0       0       0       0       0       0
       0       0       0       0       0       0       0       0       0       0
       0       0       0       0       0       0       0       0       0       0
       0       0       0       0       0       0       0       0       0       0
       0       0       0       0       0       0       0       0       0       0
       0       0       0       0       0       0       0       0       0       0
       0       0       0       0       0       0       0       0       0       0
       0       0       0       0       0       0       0       0       0       0
       0       0       0       0       0       0       0       0       0       0
       0       0       0       0       0       0       0       0       0       0
       0       0       0       0       0       0       0       0       0       0
       0       0       0       0       0       0       0       0       0       0
       0       0       0       0       0       0       0       0       0       0
       0       0       0       0       0       0       0       0       0       0
       0       0       0       0       0       0       0       0       0       0
       0       0       0       0       0       0       0       0       0       0
       0       0       0       0       0       0       0       0       0       0
       0       0       0       0       0       0       0       0       0       0
       0       0       0       0       0       0       0       0       0       0
       0       0       0       0       0       0       0       0       0       0
       0       0       0       0       0       0       0       0       0       0
       0       0       0       0       0       0       0       0       0       0
       0       0       0       0       0       0       0       0       0       0
       0       0       0       0       0       0       0       0       0       0
       0       0       0       0       0       0       0       0       0       0
       0       0       0       0       0       0       0       0       0       0
       0       0       0       0       0       0       0       0       0       0
       0       0       0       0       0       0       0       0       0       0
       0       0       0       0       0       0       0       0       0       0
       0       0       0       0       0       0       0       0       0       0
       0       0       0       0       0       0       0       0       0       0
       0       0       0       0       0       0       0       0       0       0
       0       0       0       0       0       0       0       0       0       0
       0       0       0       0       0       0       0       0       0       0
       0       0       0       0       0       0       0       0       0       0
       0       0       0       0       0       0       0       0       0       0
       0       0       0       0       0       0       0       0       0       0
       0       0       0       0       0       0       0       0       0       0
       0       0       0       0       0       0       0       0       0       0
       0       0       0       0       0       0       0       0       0       0
       0       0       0       0       0       0       0       0       0       0
       0       0       0       0       0       0       0       0       0       0
       0       0       0       0       0       0       0       0       0       0
       0       0       0       0       0       0       0       0       0       0
       0       0       0       0       0       0       0       0       0       0
       0       0       0       0       0       0       0       0       0       0
       0       0       0       0       0       0       0       0       0       0
       0       0       0       0       0       0       0       0       0       0
       0       0       0       0       0       0       0       0       0       0
       0       0       0       0       0       0       0       0       0       0
       0       0       0       0       0       0       0       0       0       0
       0       0       0       0       0       0       0       0       0       0
       0       0       0       0       0       0       0       0       0       0
       0       0       0       0       0       0       0       0       0       0
       0       0       0       0       0       0       0       0       0       0
       0       0       0       0       0       0       0       0       0       0
       0       0       0       0       0       0       0       0       0       0
       0       0       0       0       0       0       0       0       0       0
       0       0       0       0       0       0       0       0       0       0
       0       0       0       0       0       0       0       0       0       0
       0       0       0       0       0       0       0       0       0       0
       0       0       0       0       0       0       0       0       0       0
       0       0       0       0       0       0       0       0       0       0
       0       0       0       0       0       0       0       0       0       0
       0       0       0       0       0       0       0       0       0       0
       0       0       0       0       0       0       0       0       0       0
       0       0       0       0       0       0       0       0       0       0
       0       0       0       0       0       0       0       0       0       0
       0       0       0       0       0       0       0       0       0       0
       0       0       0       0       0       0       0       0       0       0
       0       0       0       0       0       0       0       0       0       0
       0       0       0       0       0       0       0       0       0       0
       0       0       0       0       0       0       0       0       0       0
       0       0       0       0       0       0       0       0       0       0
       0       0       0       0       0       0       0       0       0       0
       0       0       0       0       0       0       0       0       0       0
       0       0       0       0       0       0       0       0       0       0
       0       0       0       0       0       0       0       0       0       0
       0       0       0       0       0       0       0       0       0       0
       0       0       0       0       0       0       0       0       0       0
       0       0       0       0       0       0       0       0       0       0
       0       0       0       0       0       0       0       0       0       0
       0       0       0       0       0       0       0       0       0       0
       0       0       0       0       0       0       0       0       0       0
       0       0       0       0       0       0       0       0       0       0
       0       0       0       0       0       0       0       0       0       0
       0       0       0       0       0       0       0       0       0       0
       0       0       0       0       0       0       0       0       0       0
       0       0       0       0       0       0       0       0       0       0
       0       0       0       0       0       0       0       0       0       0
       0       0       0       0       0       0       0       0       0       0
       0       0       0       0       0       0       0       0       0       0
       0       0       0       0       0       0       0       0       0       0
       0       0       0       0       0       0       0       0       0       0
       0       0       0       0       0       0       0       0       0       0
       0       0       0       0       0       0       0       0       0       0
       0       0       0       0       0       0       0       0       0       0
       0       0       0       0       0       0       0       0       0       0
       0       0       0       0       0       0       0       0       0       0
       0       0       0       0       0       0       0       0       0       0
       0       0       0       0       0       0       0       0       0       0
       0       0       0       0       0       0       0       0       0       0
       0       0       0       0       0       0       0       0       0       0
       0       0       0       0       0       0       0       0       0       0
       0       0       0       0       0       0       0       0       0       0
       0       0       0       0       0       0       0       0       0       0
       0       0       0       0       0       0       0       0       0       0
       0       0       0       0       0       0       0       0       0       0
       0       0       0       0       0       0       0       0       0       0
       0       0       0       0       0       0       0       0       0       0
       0       0       0       0       0       0       0       0       0       0
       0       0       0       0       0       0       0       0       0       0
       0       0       0       0       0       0       0       0       0       0
       0       0       0       0       0       0       0       0       0       0
       0       0       0       0       0       0       0       0       0       0
       0       0       0       0       0       0       0       0       0       0
       0       0       0       0       0       0       0       0       0       0
       0       0       0       0       0       0       0       0       0       0
       0       0       0       0       0       0       0       0       0       0
       0       0       0       0       0       0       0       0       0       0
       0       0       0       0       0       0       0       0       0       0
       0       0       0       0       0       0       0       0       0       0
       0       0       0       0       0       0       0       0       0       0
       0       0       0       0       0       0       0       0       0       0
       0       0       0       0       0       0       0       0       0       0
       0       0       0       0       0       0       0       0       0       0
       0       0       0       0       0       0       0       0       0       0
       0       0       0       0       0       0       0       0       0       0
       0       0       0       0       0       0       0       0       0       0
       0       0       0       0       0       0       0       0       0       0
       0       0       0       0       0       0       0       0       0       0
       0       0       0       0       0       0       0       0       0       0
       0       0       0       0       0       0       0       0       0       0
       0       0       0       0       0       0       0       0       0       0
       0       0       0       0       0       0       0       0       0       0
       0       0       0       0       0       0       0       0       0       0
       0       0       0       0       0       0       0       0       0       0
       0       0       0       0       0       0       0       0       0       0
       0       0       0       0       0       0       0       0       0       0
       0       0       0       0       0       0       0       0       0       0
       0       0       0       0       0       0       0       0       0       0
       0       0       0       0       0       0       0       0       0       0
       0       0       0       0       0       0       0       0       0       0
       0       0       0       0       0       0       0       0       0       0
       0       0       0       0       0       0       0       0       0       0
       0       0       0       0       0       0       0       0       0       0
       0       0       0       0       0       0       0       0       0       0
       0       0       0       0       0       0       0       0       0       0
       0       0       0       0       0       0       0       0       0       0
       0       0       0       0       0       0       0       0       0       0
       0       0       0       0       0       0       0       0       0       0
       0       0       0       0       0       0       0       0       0       0
       0       0       0       0       0       0       0       0       0       0
       0       0       0       0       0       0       0       0       0       0
       0       0       0       0       0       0       0       0       0       0
       0       0       0       0       0       0       0       0       0       0
       0       0       0       0       0       0       0       0       0       0
       0       0       0       0       0       0       0       0       0       0
       0       0       0       0       0       0       0       0       0       0
       0       0       0       0       0       0       0       0       0       0
       0       0       0       0       0       0       0       0       0       0
       0       0       0       0       0       0       0       0       0       0
       0       0       0       0       0       0       0       0       0       0
       0       0       0       0       0       0       0       0       0       0
       0       0       0       0       0       0       0       0       0       0
       0       0       0       0       0       0       0       0       0       0
       0       0       0       0       0       0       0       0       0       0
       0       0       0       0       0       0       0       0       0       0
       0       0       0       0       0       0       0       0       0       0
       0       0       0       0       0       0       0       0       0       0
       0       0       0       0       0       0       0       0       0       0
       0       0       0       0       0       0       0       0       0       0
       0       0       0       0       0       0       0       0       0       0
       0       0       0       0       0       0       0       0       0       0
       0       0       0       0       0       0       0       0       0       0
       0       0       0       0       0       0       0       0       0       0
       0       0       0       0       0       0       0       0       0       0
       0       0       0       0       0       0       0       0       0       0
       0       0       0       0       0       0       0       0       0       0
       0       0       0       0       0       0       0       0       0       0
       0       0       0       0       0       0       0       0       0       0
       0       0       0       0       0       0       0       0       0       0
       0       0       0       0       0       0       0       0       0       0
       0       0       0       0       0       0       0       0       0       0
       0       0       0       0       0       0       0       0       0       0
       0       0       0       0       0       0       0       0       0       0
       0       0       0       0       0       0       0       0       0       0
       0       0       0       0       0       0       0       0       0       0
       0       0       0       0       0       0       0       0       0       0
       0       0       0       0       0       0       0       0       0       0
       0       0       0       0       0       0       0       0       0       0
       0       0       0       0       0       0       0       0       0       0
       0       0       0       0       0       0       0       0       0       0
       0       0       0       0       0       0       0       0       0       0
       0       0       0       0       0       0       0       0       0       0
       0       0       0       0       0       0       0       0       0       0
       0       0       0       0       0       0       0       0       0       0
       0       0       0       0       0       0       0       0       0       0
       0       0       0       0       0       0       0       0       0       0
       0       0       0       0       0       0       0       0       0       0
       0       0       0       0       0       0       0       0       0       0
       0       0       0       0       0       0       0       0       0       0
       0       0       0       0       0       0       0       0       0       0
       0       0       0       0       0       0       0       0       0       0
       0       0       0       0       0       0       0       0       0       0
       0       0       0       0       0       0       0       0       0       0
       0       0       0       0       0       0       0       0       0       0
       0       0       0       0       0       0       0       0       0       0
       0       0       0       0       0       0       0       0       0       0
       0       0       0       0       0       0       0       0       0       0
       0       0       0       0       0       0       0       0       0       0
       0       0       0       0       0       0       0       0       0       0
       0       0       0       0       0       0       0       0       0       0
       0       0       0       0       0       0       0       0       0       0
       0       0       0       0       0       0       0       0       0       0
       0       0       0       0       0       0       0       0       0       0
       0       0       0       0       0       0       0       0       0       0
       0       0       0       0       0       0       0       0       0       0
       0       0       0       0       0       0       0       0       0       0
       0       0       0       0       0       0       0       0       0       0
       0       0       0       0       0       0       0       0       0       0
       0       0       0       0       0       0       0       0       0       0
       0       0       0       0       0       0       0       0       0       0
       0       0       0       0       0       0       0       0       0       0
       0       0       0       0       0       0       0       0       0       0
       0       0       0       0       0       0       0       0       0       0
       0       0       0       0       0       0       0       0       0       0
       0       0       0       0       0       0       0       0       0       0
       0       0       0       0       0       0       0       0       0       0
       0       0       0       0       0       0       0       0       0       0
       0       0       0       0       0       0       0       0       0       0
       0       0       0       0       0       0       0       0       0       0
       0       0       0       0       0       0       0       0       0       0
       0       0       0       0       0       0       0       0       0       0
       0       0       0       0       0       0       0       0       0       0
       0       0       0       0       0       0       0       0       0       0
       0       0       0       0       0       0       0       0       0       0
       0       0       0       0       0       0       0       0       0       0
       0       0       0       0       0       0       0       0       0       0
       0       0       0       0       0       0       0       0       0       0
       0       0       0       0       0       0       0       0       0       0
       0       0       0       0       0       0       0       0       0       0
       0       0       0       0       0       0       0       0       0       0
       0       0       0       0       0       0       0       0       0       0
       0       0       0       0       0       0       0       0       0       0
       0       0       0       0       0       0       0       0       0       0
       0       0       0       0       0       0       0       0       0       0
       0       0       0       0       0       0       0       0       0       0
       0       0       0       0       0       0       0       0       0       0
       0       0       0       0       0       0       0       0       0       0
       0       0       0       0       0       0       0       0       0       0
       0       0       0       0       0       0       0       0       0       0
       0       0       0       0       0       0       0       0       0       0
       0       0       0       0       0       0       0       0       0       0
       0       0       0       0       0       0       0       0       0       0
       0       0       0       0       0       0       0       0       0       0
       0       0       0       0       0       0       0       0       0       0
       0       0       0       0       0       0       0       0       0       0
       0       0       0       0       0       0       0       0       0       0
       0       0       0       0       0       0       0       0       0       0
       0       0       0       0       0       0       0       0       0       0
       0       0       0       0       0       0       0       0       0       0
       0       0       0       0       0       0       0       0       0       0
       0       0       0       0       0       0       0       0       0       0
       0       0       0       0       0       0       0       0       0       0
       0       0       0       0       0       0       0       0       0       0
       0       0       0       0       0       0       0       0       0       0
       0       0       0       0       0       0       0       0       0       0
       0       0       0       0       0       0       0       0       0       0
       0       0       0       0       0       0       0       0       0       0
       0       0       0       0       0       0       0       0       0       0
       0       0       0       0       0       0       0       0       0       0
       0       0       0       0       0       0       0       0       0       0
       0       0       0       0       0       0       0       0       0       0
       0       0       0       0       0       0       0       0       0       0
       0       0       0       0       0       0       0       0       0       0
       0       0       0       0       0       0       0       0       0       0
       0       0       0       0       0       0       0       0       0       0
       0       0       0       0       0       0       0       0       0       0
       0       0       0       0       0       0       0       0       0       0
       0       0       0       0       0       0       0       0       0       0
       0       0       0       0       0       0       0       0       0       0
       0       0       0       0       0       0       0       0       0       0
       0       0       0       0       0       0       0       0       0       0
       0       0       0       0       0       0       0       0       0       0
       0       0       0       0       0       0       0       0       0       0
       0       0       0       0       0       0       0       0       0       0
       0       0       0       0       0       0       0       0       0       0
       0       0       0       0       0       0       0       0       0       0
       0       0       0       0       0       0       0       0       0       0
       0       0       0       0       0       0       0       0       0       0
       0       0       0       0       0       0       0       0       0       0
       0       0       0       0       0       0       0       0       0       0
       0       0       0       0       0       0       0       0       0       0
       0       0       0       0       0       0       0       0       0       0
       0       0       0       0       0       0       0       0       0       0
       0       0       0       0       0       0       0       0       0       0
       0       0       0       0       0       0       0       0       0       0
       0       0       0       0       0       0       0       0       0       0
       0       0       0       0       0       0       0       0       0       0
       0       0       0       0       0       0       0       0       0       0
       0       0       0       0       0       0       0       0       0       0
       0       0       0       0       0       0       0       0       0       0
       0       0       0       0       0       0       0       0       0       0
       0       0       0       0       0       0       0       0       0       0
       0       0       0       0       0       0       0       0       0       0
       0       0       0       0       0       0       0       0       0       0
       0       0       0       0       0       0       0       0       0       0
       0       0       0       0       0       0       0       0       0       0
       0       0       0       0       0       0       0       0       0       0
       0       0       0       0       0       0       0       0       0       0
       0       0       0       0       0       0       0       0       0       0
       0       0       0       0       0       0       0       0       0       0
       0       0       0       0       0       0       0       0       0       0
       0       0       0       0       0       0       0       0       0       0
       0       0       0       0       0       0       0       0       0       0
       0       0       0       0       0       0       0       0       0       0
       0       0       0       0       0       0       0       0       0       0
       0       0       0       0       0       0       0       0       0       0
       0       0       0       0       0       0       0       0       0       0
       0       0       0       0       0       0       0       0       0       0
       0       0       0       0       0       0       0       0       0       0
       0       0       0       0       0       0       0       0       0       0
       0       0       0       0       0       0       0       0       0       0
       0       0       0       0       0       0       0       0       0       0
       0       0       0       0       0       0       0       0       0       0
       0       0       0       0       0       0       0       0       0       0
       0       0       0       0       0       0       0       0       0       0
       0       0       0       0       0       0       0       0       0       0
       0       0       0       0       0       0       0       0       0       0
       0       0       0       0       0       0       0       0       0       0
       0       0       0       0       0       0       0       0       0       0
       0       0       0       0       0       0       0       0       0       0
       0       0       0       0       0       0       0       0       0       0
       0       0       0       0       0       0       0       0       0       0
       0       0       0       0       0       0       0       0       0       0
       0       0       0       0       0       0       0       0       0       0
       0       0       0       0       0       0       0       0       0       0
       0       0       0       0       0       0       0       0       0       0
       0       0       0       0       0       0       0       0       0       0
       0       0       0       0       0       0       0       0       0       0
       0       0       0       0       0       0       0       0       0       0
       0       0       0       0       0       0       0       0       0       0
       0       0       0       0       0       0       0       0       0       0
       0       0       0       0       0       0       0       0       0       0
       0       0       0       0       0       0       0       0       0       0
       0       0       0       0       0       0       0       0       0       0
       0       0       0       0       0       0       0       0       0       0
       0       0       0       0       0       0       0       0       0       0
       0       0       0       0       0       0       0       0       0       0
       0       0       0       0       0       0       0       0       0       0
       0       0       0       0       0       0       0       0       0       0
       0       0       0       0       0       0       0       0       0       0
       0       0       0       0       0       0       0       0       0       0
       0       0       0       0       0       0       0       0       0       0
       0       0       0       0       0       0       0       0       0       0
       0       0       0       0       0       0       0       0       0       0
       0       0       0       0       0       0       0       0       0       0
       0       0       0       0       0       0       0       0       0       0
       0       0       0       0       0       0       0       0       0       0
       0       0       0       0       0       0       0       0       0       0
       0       0       0       0       0       0       0       0       0       0
       0       0       0       0       0       0       0       0       0       0
       0       0       0       0       0       0       0       0       0       0
       0       0       0       0       0       0       0       0       0       0
       0       0       0       0       0       0       0       0       0       0
       0       0       0       0       0       0       0       0       0       0
       0       0       0       0       0       0       0       0       0       0
       0       0       0       0       0       0       0       0       0       0
       0       0       0       0       0       0       0       0       0       0
       0       0       0       0       0       0       0       0       0       0
       0       0       0       0       0       0       0       0       0       0
       0       0       0       0       0       0       0       0       0       0
       0       0       0       0       0       0       0       0       0       0
       0       0       0       0       0       0       0       0       0       0
       0       0       0       0       0       0       0       0       0       0
       0       0       0       0       0       0       0       0       0       0
       0       0       0       0       0       0       0       0       0       0
       0       0       0       0       0       0       0       0       0       0
       0       0       0       0       0       0       0       0       0       0
       0       0       0       0       0       0       0       0       0       0
       0       0       0       0       0       0       0       0       0       0
       0       0       0       0       0       0       0       0       0       0
       0       0       0       0       0       0       0       0       0       0
       0       0       0       0       0       0       0       0       0       0
       0       0       0       0       0       0       0       0       0       0
       0       0       0       0       0       0       0       0       0       0
       0       0       0       0       0       0       0       0       0       0
       0       0       0       0       0       0       0       0       0       0
       0       0       0       0       0       0       0       0       0       0
       0       0       0       0       0       0       0       0       0       0
       0       0       0       0       0       0       0       0       0       0
       0       0       0       0       0       0       0       0       0       0
       0       0       0       0       0       0       0       0       0       0
       0       0       0       0       0       0       0       0       0       0
       0       0       0       0       0       0       0       0       0       0
       0       0       0       0       0       0       0       0       0       0
       0       0       0       0       0       0       0       0       0       0
       0       0       0       0       0       0       0       0       0       0
       0       0       0       0       0       0       0       0       0       0
       0       0       0       0       0       0       0       0       0       0
       0       0       0       0       0       0       0       0       0       0
       0       0       0       0       0       0       0       0       0       0
       0       0       0       0       0       0       0       0       0       0
       0       0       0       0       0       0       0       0       0       0
       0       0       0       0       0       0       0       0       0       0
       0       0       0       0       0       0       0       0       0       0
       0       0       0       0       0       0       0       0       0       0
       0       0       0       0       0       0       0       0       0       0
       0       0       0       0       0       0       0       0       0       0
       0       0       0       0       0       0       0       0       0       0
       0       0       0       0       0       0       0       0       0       0
       0       0       0       0       0       0       0       0       0       0
       0       0       0       0       0       0       0       0       0       0
       0       0       0       0       0       0       0       0       0       0
       0       0       0       0       0       0       0       0       0       0
       0       0       0       0       0       0       0       0       0       0
       0       0       0       0       0       0       0       0       0       0
       0       0       0       0       0       0       0       0       0       0
       0       0       0       0       0       0       0       0       0       0
       0       0       0       0       0       0       0       0       0       0
       0       0       0       0       0       0       0       0       0       0
       0       0       0       0       0       0       0       0       0       0
       0       0       0       0       0       0       0       0       0       0
       0       0       0       0       0       0       0       0       0       0
       0       0       0       0       0       0       0       0       0       0
       0       0       0       0       0       0       0       0       0       0
       0       0       0       0       0       0       0       0       0       0
       0       0       0       0       0       0       0       0       0       0
       0       0       0       0       0       0       0       0       0       0
       0       0       0       0       0       0       0       0       0       0
       0       0       0       0       0       0       0       0       0       0
       0       0       0       0       0       0       0       0       0       0
       0       0       0       0       0       0       0       0       0       0
       0       0       0       0       0       0       0       0       0       0
       0       0       0       0       0       0       0       0       0       0
       0       0       0       0       0       0       0       0       0       0
       0       0       0       0       0       0       0       0       0       0
       0       0       0       0       0       0       0       0       0       0
       0       0       0       0       0       0       0       0       0       0
       0       0       0       0       0       0       0       0       0       0
       0       0       0       0       0       0       0       0       0       0
       0       0       0       0       0       0       0       0       0       0
       0       0       0       0       0       0       0       0       0       0
       0       0       0       0       0       0       0       0       0       0
       0       0       0       0       0       0       0       0       0       0
       0       0       0       0       0       0       0       0       0       0
       0       0       0       0       0       0       0       0       0       0
       0       0       0       0       0       0       0       0       0       0
       0       0       0       0       0       0       0       0       0       0
       0       0       0       0       0       0       0       0       0       0
       0       0       0       0       0       0       0       0       0       0
       0       0       0       0       0       0       0       0       0       0
       0       0       0       0       0       0       0       0       0       0
       0       0       0       0       0       0       0       0       0       0
       0       0       0       0       0       0       0       0       0       0
       0       0       0       0       0       0       0       0       0       0
       0       0       0       0       0       0       0       0       0       0
       0       0       0       0       0       0       0       0       0       0
       0       0       0       0       0       0       0       0       0       0
       0       0       0       0       0       0       0       0       0       0
       0       0       0       0       0       0       0       0       0       0
       0       0       0       0       0       0       0       0       0       0
       0       0       0       0       0       0       0       0       0       0
       0       0       0       0       0       0       0       0       0       0
       0       0       0       0       0       0       0       0       0       0
       0       0       0       0       0       0       0       0       0       0
       0       0       0       0       0       0       0       0       0       0
       0       0       0       0       0       0       0       0       0       0
       0       0       0       0       0       0       0       0       0       0
       0       0       0       0       0       0       0       0       0       0
       0       0       0       0       0       0       0       0       0       0
       0       0       0       0       0       0       0       0       0       0
       0       0       0       0       0       0       0       0       0       0
       0       0       0       0       0       0       0       0       0       0
       0       0       0       0       0       0       0       0       0       0
       0       0       0       0       0       0       0       0       0       0
       0       0       0       0       0       0       0       0       0       0
       0       0       0       0       0       0       0       0       0       0
       0       0       0       0       0       0       0       0       0       0
       0       0       0       0       0       0       0       0       0       0
       0       0       0       0       0       0       0       0       0       0
       0       0       0       0       0       0       0       0       0       0
       0       0       0       0       0       0       0       0       0       0
       0       0       0       0       0       0       0       0       0       0
       0       0       0       0       0       0       0       0       0       0
       0       0       0       0       0       0       0       0       0       0
       0       0       0       0       0       0       0       0       0       0
       0       0       0       0       0       0       0       0       0       0
       0       0       0       0       0       0       0       0       0       0
       0       0       0       0       0       0       0       0       0       0
       0       0       0       0       0       0       0       0       0       0
       0       0       0       0       0       0       0       0       0       0
       0       0       0       0       0       0       0       0       0       0
       0       0       0       0       0       0       0       0       0       0
       0       0       0       0       0       0       0       0       0       0
       0       0       0       0       0       0       0       0       0       0
       0       0       0       0       0       0       0       0       0       0
       0       0       0       0       0       0       0       0       0       0
       0       0       0       0       0       0       0       0       0       0
       0       0       0       0       0       0       0       0       0       0
       0       0       0       0       0       0       0       0       0       0
       0       0       0       0       0       0       0       0       0       0
       0       0       0       0       0       0       0       0       0       0
       0       0       0       0       0       0       0       0       0       0
       0       0       0       0       0       0       0       0       0       0
       0       0       0       0       0       0       0       0       0       0
       0       0       0       0       0       0       0       0       0       0
       0       0       0       0       0       0       0       0       0       0
       0       0       0       0       0       0       0       0       0       0
       0       0       0       0       0       0       0       0       0       0
       0       0       0       0       0       0       0       0       0       0
       0       0       0       0       0       0
%FLAG SOLVENT_POINTERS
%FORMAT(3I8)
      26    1885      19
%FLAG ATOMS_PER_MOLECULE
%FORMAT(10I8)
      71      93      39       1       1       1       1       1       1       1
       1       1       1       1       1       1       1       1       4       4
       4       4       4       4       4       4       4       4       4       4
       4       4       4       4       4       4       4       4       4       4
       4       4       4       4       4       4       4       4       4       4
       4       4       4       4       4       4       4       4       4       4
       4       4       4       4       4       4       4       4       4       4
       4       4       4       4       4       4       4       4       4       4
       4       4       4       4       4       4       4       4       4       4
       4       4       4       4       4       4       4       4       4       4
       4       4       4       4       4       4       4       4       4       4
       4       4       4       4       4       4       4       4       4       4
       4       4       4       4       4       4       4       4       4       4
       4       4       4       4       4       4       4       4       4       4
       4       4       4       4       4       4       4       4       4       4
       4       4       4       4       4       4       4       4       4       4
       4       4       4       4       4       4       4       4       4       4
       4       4       4       4       4       4       4       4       4       4
       4       4       4       4       4       4       4       4       4       4
       4       4       4       4       4       4       4       4       4       4
       4       4       4       4       4       4       4       4       4       4
       4       4       4       4       4       4       4       4       4       4
       4       4       4       4       4       4       4       4       4       4
       4       4       4       4       4       4       4       4       4       4
       4       4       4       4       4       4       4       4       4       4
       4       4       4       4       4       4       4       4       4       4
       4       4       4       4       4       4       4       4       4       4
       4       4       4       4       4       4       4       4       4       4
       4       4       4       4       4       4       4       4       4       4
       4       4       4       4       4       4       4       4       4       4
       4       4       4       4       4       4       4       4       4       4
       4       4       4       4       4       4       4       4       4       4
       4       4       4       4       4       4       4       4       4       4
       4       4       4       4       4       4       4       4       4       4
       4       4       4       4       4       4       4       4       4       4
       4       4       4       4       4       4       4       4       4       4
       4       4       4       4       4       4       4       4       4       4
       4       4       4       4       4       4       4       4       4       4
       4       4       4       4       4       4       4       4       4       4
       4       4       4       4       4       4       4       4       4       4
       4       4       4       4       4       4       4       4       4       4
       4       4       4       4       4       4       4       4       4       4
       4       4       4       4       4       4       4       4       4       4
       4       4       4       4       4       4       4       4       4       4
       4       4       4       4       4       4       4       4       4       4
       4       4       4       4       4       4       4       4       4       4
       4       4       4       4       4       4       4       4       4       4
       4       4       4       4       4       4       4       4       4       4
       4       4       4       4       4       4       4       4       4       4
       4       4       4       4       4       4       4       4       4       4
       4       4       4       4       4       4       4       4       4       4
       4       4       4       4       4       4       4       4       4       4
       4       4       4       4       4       4       4       4       4       4
       4       4       4       4       4       4       4       4       4       4
       4       4       4       4       4       4       4       4       4       4
       4       4       4       4       4       4       4       4       4       4
       4       4       4       4       4       4       4       4       4       4
       4       4       4       4       4       4       4       4       4       4
       4       4       4       4       4       4       4       4       4       4
       4       4       4       4       4       4       4       4       4       4
       4       4       4       4       4       4       4       4       4       4
       4       4       4       4       4       4       4       4       4       4
       4       4       4       4       4       4       4       4       4       4
       4       4       4       4       4       4       4       4       4       4
       4       4       4       4       4       4       4       4       4       4
       4       4       4       4       4       4       4       4       4       4
       4       4       4       4       4       4       4       4       4       4
       4       4       4       4       4       4       4       4       4       4
       4       4       4       4       4       4       4       4       4       4
       4       4       4       4       4       4       4       4       4       4
       4       4       4       4       4       4       4       4       4       4
       4       4       4       4       4       4       4       4       4       4
       4       4       4       4       4       4       4       4       4       4
       4       4       4       4       4       4       4       4       4       4
       4       4       4       4       4       4       4       4       4       4
       4       4       4       4       4       4       4       4       4       4
       4       4       4       4       4       4       4       4       4       4
       4       4       4       4       4       4       4       4       4       4
       4       4       4       4       4       4       4       4       4       4
       4       4       4       4       4       4       4       4       4       4
       4       4       4       4       4       4       4       4       4       4
       4       4       4       4       4       4       4       4       4       4
       4       4       4       4       4       4       4       4       4       4
       4       4       4       4       4       4       4       4       4       4
       4       4       4       4       4       4       4       4       4       4
       4       4       4       4       4       4       4       4       4       4
       4       4       4       4       4       4       4       4       4       4
       4       4       4       4       4       4       4       4       4       4
       4       4       4       4       4       4       4       4       4       4
       4       4       4       4       4       4       4       4       4       4
       4       4       4       4       4       4       4       4       4       4
       4       4       4       4       4       4       4       4       4       4
       4       4       4       4       4       4       4       4       4       4
       4       4       4       4       4       4       4       4       4       4
       4       4       4       4       4       4       4       4       4       4
       4       4       4       4       4       4       4       4       4       4
       4       4       4       4       4       4       4       4       4       4
       4       4       4       4       4       4       4       4       4       4
       4       4       4       4       4       4       4       4       4       4
       4       4       4       4       4       4       4       4       4       4
       4       4       4       4       4       4       4       4       4       4
       4       4       4       4       4       4       4       4       4       4
       4       4       4       4       4       4       4       4       4       4
       4       4       4       4       4       4       4       4       4       4
       4       4       4       4       4       4       4       4       4       4
       4       4       4       4       4       4       4       4       4       4
       4       4       4       4       4       4       4       4       4       4
       4       4       4       4       4       4       4       4       4       4
       4       4       4       4       4       4       4       4       4       4
       4       4       4       4       4       4       4       4       4       4
       4       4       4       4       4       4       4       4       4       4
       4       4       4       4       4       4       4       4       4       4
       4       4       4       4       4       4       4       4       4       4
       4       4       4       4       4       4       4       4       4       4
       4       4       4       4       4       4       4       4       4       4
       4       4       4       4       4       4       4       4       4       4
       4       4       4       4       4       4       4       4       4       4
       4       4       4       4       4       4       4       4       4       4
       4       4       4       4       4       4       4       4       4       4
       4       4       4       4       4       4       4       4       4       4
       4       4       4       4       4       4       4       4       4       4
       4       4       4       4       4       4       4       4       4       4
       4       4       4       4       4       4       4       4       4       4
       4       4       4       4       4       4       4       4       4       4
       4       4       4       4       4       4       4       4       4       4
       4       4       4       4       4       4       4       4       4       4
       4       4       4       4       4       4       4       4       4       4
       4       4       4       4       4       4       4       4       4       4
       4       4       4       4       4       4       4       4       4       4
       4       4       4       4       4       4       4       4       4       4
       4       4       4       4       4       4       4       4       4       4
       4       4       4       4       4       4       4       4       4       4
       4       4       4       4       4       4       4       4       4       4
       4       4       4       4       4       4       4       4       4       4
       4       4       4       4       4       4       4       4       4       4
       4       4       4       4       4       4       4       4       4       4
       4       4       4       4       4       4       4       4       4       4
       4       4       4       4       4       4       4       4       4       4
       4       4       4       4       4       4       4       4       4       4
       4       4       4       4       4       4       4       4       4       4
       4       4       4       4       4       4       4       4       4       4
       4       4       4       4       4       4       4       4       4       4
       4       4       4       4       4       4       4       4       4       4
       4       4       4       4       4       4       4       4       4       4
       4       4       4       4       4       4       4       4       4       4
       4       4       4       4       4       4       4       4       4       4
       4       4       4       4       4       4       4       4       4       4
       4       4       4       4       4       4       4       4       4       4
       4       4       4       4       4       4       4       4       4       4
       4       4       4       4       4       4       4       4       4       4
       4       4       4       4       4       4       4       4       4       4
       4       4       4       4       4       4       4       4       4       4
       4       4       4       4       4       4       4       4       4       4
       4       4       4       4       4       4       4       4       4       4
       4       4       4       4       4       4       4       4       4       4
       4       4       4       4       4       4       4       4       4       4
       4       4       4       4       4       4       4       4       4       4
       4       4       4       4       4       4       4       4       4       4
       4       4       4       4       4       4       4       4       4       4
       4       4       4       4       4       4       4       4       4       4
       4       4       4       4       4       4       4       4       4       4
       4       4       4       4       4       4       4       4       4       4
       4       4       4       4       4       4       4       4       4       4
       4       4       4       4       4       4       4       4       4       4
       4       4       4       4       4       4       4       4       4       4
       4       4       4       4       4       4       4       4       4       4
       4       4       4       4       4       4       4       4       4       4
       4       4       4       4       4       4       4       4       4       4
       4       4       4       4       4       4       4       4       4       4
       4       4       4       4       4       4       4       4       4       4
       4       4       4       4       4       4       4       4       4       4
       4       4       4       4       4       4       4       4       4       4
       4       4       4       4       4       4       4       4       4       4
       4       4       4       4       4       4       4       4       4       4
       4       4       4       4       4       4       4       4       4       4
       4       4       4       4       4       4       4       4       4       4
       4       4       4       4       4       4       4       4       4       4
       4       4       4       4       4       4       4       4       4       4
       4       4       4       4       4       4       4       4       4       4
       4       4       4       4       4       4       4       4       4       4
       4       4       4       4       4       4       4       4       4       4
       4       4       4       4       4       4       4       4       4       4
       4       4       4       4       4       4       4       4       4       4
       4       4       4       4       4       4       4       4       4       4
       4       4       4       4       4       4       4       4       4       4
       4       4       4       4       4       4       4       4       4       4
       4       4       4       4       4       4       4       4       4       4
       4       4       4       4       4       4       4       4       4       4
       4       4       4       4       4
%FLAG BOX_DIMENSIONS
%FORMAT(5E16.8)
  9.00000000E+01  3.88373174E+01  3.64424884E+01  4.11496830E+01
%FLAG RADIUS_SET
%FORMAT(1a80)
modified Bondi radii (mbondi)                                                   
%FLAG RADII
%FORMAT(5E16.8)
  1.55000000E+00  1.30000000E+00  1.30000000E+00  1.30000000E+00  1.70000000E+00
  1.30000000E+00  1.70000000E+00  1.30000000E+00  1.30000000E+00  1.50000000E+00
  8.00000000E-01  1.70000000E+00  1.50000000E+00  1.55000000E+00  1.30000000E+00
  1.70000000E+00  1.30000000E+00  1.70000000E+00  1.30000000E+00  1.30000000E+00
  1.70000000E+00  1.30000000E+00  1.70000000E+00  1.30000000E+00  1.30000000E+00
  1.30000000E+00  1.70000000E+00  1.30000000E+00  1.30000000E+00  1.30000000E+00
  1.70000000E+00  1.50000000E+00  1.55000000E+00  1.30000000E+00  1.70000000E+00
  1.30000000E+00  1.70000000E+00  1.30000000E+00  1.30000000E+00  1.30000000E+00
  1.70000000E+00  1.50000000E+00  1.55000000E+00  1.30000000E+00  1.70000000E+00
  1.30000000E+00  1.70000000E+00  1.30000000E+00  1.30000000E+00  1.70000000E+00
  1.55000000E+00  1.70000000E+00  1.30000000E+00  1.55000000E+00  1.30000000E+00
  1.70000000E+00  1.30000000E+00  1.70000000E+00  1.50000000E+00  1.55000000E+00
  1.30000000E+00  1.70000000E+00  1.30000000E+00  1.70000000E+00  1.30000000E+00
  1.30000000E+00  1.50000000E+00  8.00000000E-01  1.70000000E+00  1.50000000E+00
  1.50000000E+00  1.55000000E+00  1.30000000E+00  1.30000000E+00  1.30000000E+00
  1.70000000E+00  1.30000000E+00  1.70000000E+00  1.30000000E+00  1.30000000E+00
  1.70000000E+00  1.30000000E+00  1.70000000E+00  1.30000000E+00  1.30000000E+00
  1.30000000E+00  1.70000000E+00  1.30000000E+00  1.30000000E+00  1.30000000E+00
  1.70000000E+00  1.50000000E+00  1.55000000E+00  1.30000000E+00  1.70000000E+00
  1.30000000E+00  1.70000000E+00  1.30000000E+00  1.70000000E+00  1.30000000E+00
  1.30000000E+00  1.30000000E+00  1.70000000E+00  1.30000000E+00  1.30000000E+00
  1.30000000E+00  1.70000000E+00  1.50000000E+00  1.55000000E+00  1.30000000E+00
  1.70000000E+00  1.30000000E+00  1.70000000E+00  1.30000000E+00  1.70000000E+00
  1.30000000E+00  1.30000000E+00  1.30000000E+00  1.50000000E+00  8.00000000E-01
  1.70000000E+00  1.50000000E+00  1.55000000E+00  1.30000000E+00  1.70000000E+00
  1.30000000E+00  1.70000000E+00  1.30000000E+00  1.30000000E+00  1.70000000E+00
  1.30000000E+00  1.30000000E+00  1.70000000E+00  1.30000000E+00  1.30000000E+00
  1.70000000E+00  1.30000000E+00  1.30000000E+00  1.55000000E+00  1.30000000E+00
  1.30000000E+00  1.30000000E+00  1.70000000E+00  1.50000000E+00  1.55000000E+00
  1.30000000E+00  1.70000000E+00  1.30000000E+00  1.70000000E+00  1.30000000E+00
  1.30000000E+00  1.70000000E+00  1.30000000E+00  1.70000000E+00  1.30000000E+00
  1.30000000E+00  1.30000000E+00  1.70000000E+00  1.30000000E+00  1.30000000E+00
  1.30000000E+00  1.70000000E+00  1.50000000E+00  1.50000000E+00  1.70000000E+00
  1.80000000E+00  1.70000000E+00  1.70000000E+00  1.70000000E+00  1.70000000E+00
  1.70000000E+00  1.70000000E+00  1.70000000E+00  1.80000000E+00  1.50000000E+00
  1.50000000E+00  1.70000000E+00  1.55000000E+00  1.70000000E+00  1.50000000E+00
  1.55000000E+00  1.30000000E+00  1.30000000E+00  1.70000000E+00  1.70000000E+00
  1.70000000E+00  1.70000000E+00  1.70000000E+00  1.70000000E+00  1.50000000E+00
  1.30000000E+00  1.30000000E+00  1.30000000E+00  1.30000000E+00  1.30000000E+00
  1.30000000E+00  1.30000000E+00  1.30000000E+00  1.30000000E+00  1.30000000E+00
  1.30000000E+00  1.30000000E+00  1.30000000E+00  1.70000000E+00  1.50000000E+00
  1.50000000E+00  1.50000000E+00  1.50000000E+00  1.50000000E+00  1.50000000E+00
  1.50000000E+00  1.70000000E+00  1.70000000E+00  1.70000000E+00  1.70000000E+00
  1.70000000E+00  1.70000000E+00  1.70000000E+00  1.50000000E+00  8.00000000E-01
  8.00000000E-01  1.50000000E+00  1.50000000E+00  8.00000000E-01  8.00000000E-01
  1.50000000E+00  1.50000000E+00  8.00000000E-01  8.00000000E-01  1.50000000E+00
  1.50000000E+00  8.00000000E-01  8.00000000E-01  1.50000000E+00  1.50000000E+00
  8.00000000E-01  8.00000000E-01  1.50000000E+00  1.50000000E+00  8.00000000E-01
  8.00000000E-01  1.50000000E+00  1.50000000E+00  8.00000000E-01  8.00000000E-01
  1.50000000E+00  1.50000000E+00  8.00000000E-01  8.00000000E-01  1.50000000E+00
  1.50000000E+00  8.00000000E-01  8.00000000E-01  1.50000000E+00  1.50000000E+00
  8.00000000E-01  8.00000000E-01  1.50000000E+00  1.50000000E+00  8.00000000E-01
  8.00000000E-01  1.50000000E+00  1.50000000E+00  8.00000000E-01  8.00000000E-01
  1.50000000E+00  1.50000000E+00  8.00000000E-01  8.00000000E-01  1.50000000E+00
  1.50000000E+00  8.00000000E-01  8.00000000E-01  1.50000000E+00  1.50000000E+00
  8.00000000E-01  8.00000000E-01  1.50000000E+00  1.50000000E+00  8.00000000E-01
  8.00000000E-01  1.50000000E+00  1.50000000E+00  8.00000000E-01  8.00000000E-01
  1.50000000E+00  1.50000000E+00  8.00000000E-01  8.00000000E-01  1.50000000E+00
  1.50000000E+00  8.00000000E-01  8.00000000E-01  1.50000000E+00  1.50000000E+00
  8.00000000E-01  8.00000000E-01  1.50000000E+00  1.50000000E+00  8.00000000E-01
  8.00000000E-01  1.50000000E+00  1.50000000E+00  8.00000000E-01  8.00000000E-01
  1.50000000E+00  1.50000000E+00  8.00000000E-01  8.00000000E-01  1.50000000E+00
  1.50000000E+00  8.00000000E-01  8.00000000E-01  1.50000000E+00  1.50000000E+00
  8.00000000E-01  8.00000000E-01  1.50000000E+00  1.50000000E+00  8.00000000E-01
  8.00000000E-01  1.50000000E+00  1.50000000E+00  8.00000000E-01  8.00000000E-01
  1.50000000E+00  1.50000000E+00  8.00000000E-01  8.00000000E-01  1.50000000E+00
  1.50000000E+00  8.00000000E-01  8.00000000E-01  1.50000000E+00  1.50000000E+00
  8.00000000E-01  8.00000000E-01  1.50000000E+00  1.50000000E+00  8.00000000E-01
  8.00000000E-01  1.50000000E+00  1.50000000E+00  8.00000000E-01  8.00000000E-01
  1.50000000E+00  1.50000000E+00  8.00000000E-01  8.00000000E-01  1.50000000E+00
  1.50000000E+00  8.00000000E-01  8.00000000E-01  1.50000000E+00  1.50000000E+00
  8.00000000E-01  8.00000000E-01  1.50000000E+00  1.50000000E+00  8.00000000E-01
  8.00000000E-01  1.50000000E+00  1.50000000E+00  8.00000000E-01  8.00000000E-01
  1.50000000E+00  1.50000000E+00  8.00000000E-01  8.00000000E-01  1.50000000E+00
  1.50000000E+00  8.00000000E-01  8.00000000E-01  1.50000000E+00  1.50000000E+00
  8.00000000E-01  8.00000000E-01  1.50000000E+00  1.50000000E+00  8.00000000E-01
  8.00000000E-01  1.50000000E+00  1.50000000E+00  8.00000000E-01  8.00000000E-01
  1.50000000E+00  1.50000000E+00  8.00000000E-01  8.00000000E-01  1.50000000E+00
  1.50000000E+00  8.00000000E-01  8.00000000E-01  1.50000000E+00  1.50000000E+00
  8.00000000E-01  8.00000000E-01  1.50000000E+00  1.50000000E+00  8.00000000E-01
  8.00000000E-01  1.50000000E+00  1.50000000E+00  8.00000000E-01  8.00000000E-01
  1.50000000E+00  1.50000000E+00  8.00000000E-01  8.00000000E-01  1.50000000E+00
  1.50000000E+00  8.00000000E-01  8.00000000E-01  1.50000000E+00  1.50000000E+00
  8.00000000E-01  8.00000000E-01  1.50000000E+00  1.50000000E+00  8.00000000E-01
  8.00000000E-01  1.50000000E+00  1.50000000E+00  8.00000000E-01  8.00000000E-01
  1.50000000E+00  1.50000000E+00  8.00000000E-01  8.00000000E-01  1.50000000E+00
  1.50000000E+00  8.00000000E-01  8.00000000E-01  1.50000000E+00  1.50000000E+00
  8.00000000E-01  8.00000000E-01  1.50000000E+00  1.50000000E+00  8.00000000E-01
  8.00000000E-01  1.50000000E+00  1.50000000E+00  8.00000000E-01  8.00000000E-01
  1.50000000E+00  1.50000000E+00  8.00000000E-01  8.00000000E-01  1.50000000E+00
  1.50000000E+00  8.00000000E-01  8.00000000E-01  1.50000000E+00  1.50000000E+00
  8.00000000E-01  8.00000000E-01  1.50000000E+00  1.50000000E+00  8.00000000E-01
  8.00000000E-01  1.50000000E+00  1.50000000E+00  8.00000000E-01  8.00000000E-01
  1.50000000E+00  1.50000000E+00  8.00000000E-01  8.00000000E-01  1.50000000E+00
  1.50000000E+00  8.00000000E-01  8.00000000E-01  1.50000000E+00  1.50000000E+00
  8.00000000E-01  8.00000000E-01  1.50000000E+00  1.50000000E+00  8.00000000E-01
  8.00000000E-01  1.50000000E+00  1.50000000E+00  8.00000000E-01  8.00000000E-01
  1.50000000E+00  1.50000000E+00  8.00000000E-01  8.00000000E-01  1.50000000E+00
  1.50000000E+00  8.00000000E-01  8.00000000E-01  1.50000000E+00  1.50000000E+00
  8.00000000E-01  8.00000000E-01  1.50000000E+00  1.50000000E+00  8.00000000E-01
  8.00000000E-01  1.50000000E+00  1.50000000E+00  8.00000000E-01  8.00000000E-01
  1.50000000E+00  1.50000000E+00  8.00000000E-01  8.00000000E-01  1.50000000E+00
  1.50000000E+00  8.00000000E-01  8.00000000E-01  1.50000000E+00  1.50000000E+00
  8.00000000E-01  8.00000000E-01  1.50000000E+00  1.50000000E+00  8.00000000E-01
  8.00000000E-01  1.50000000E+00  1.50000000E+00  8.00000000E-01  8.00000000E-01
  1.50000000E+00  1.50000000E+00  8.00000000E-01  8.00000000E-01  1.50000000E+00
  1.50000000E+00  8.00000000E-01  8.00000000E-01  1.50000000E+00  1.50000000E+00
  8.00000000E-01  8.00000000E-01  1.50000000E+00  1.50000000E+00  8.00000000E-01
  8.00000000E-01  1.50000000E+00  1.50000000E+00  8.00000000E-01  8.00000000E-01
  1.50000000E+00  1.50000000E+00  8.00000000E-01  8.00000000E-01  1.50000000E+00
  1.50000000E+00  8.00000000E-01  8.00000000E-01  1.50000000E+00  1.50000000E+00
  8.00000000E-01  8.00000000E-01  1.50000000E+00  1.50000000E+00  8.00000000E-01
  8.00000000E-01  1.50000000E+00  1.50000000E+00  8.00000000E-01  8.00000000E-01
  1.50000000E+00  1.50000000E+00  8.00000000E-01  8.00000000E-01  1.50000000E+00
  1.50000000E+00  8.00000000E-01  8.00000000E-01  1.50000000E+00  1.50000000E+00
  8.00000000E-01  8.00000000E-01  1.50000000E+00  1.50000000E+00  8.00000000E-01
  8.00000000E-01  1.50000000E+00  1.50000000E+00  8.00000000E-01  8.00000000E-01
  1.50000000E+00  1.50000000E+00  8.00000000E-01  8.00000000E-01  1.50000000E+00
  1.50000000E+00  8.00000000E-01  8.00000000E-01  1.50000000E+00  1.50000000E+00
  8.00000000E-01  8.00000000E-01  1.50000000E+00  1.50000000E+00  8.00000000E-01
  8.00000000E-01  1.50000000E+00  1.50000000E+00  8.00000000E-01  8.00000000E-01
  1.50000000E+00  1.50000000E+00  8.00000000E-01  8.00000000E-01  1.50000000E+00
  1.50000000E+00  8.00000000E-01  8.00000000E-01  1.50000000E+00  1.50000000E+00
  8.00000000E-01  8.00000000E-01  1.50000000E+00  1.50000000E+00  8.00000000E-01
  8.00000000E-01  1.50000000E+00  1.50000000E+00  8.00000000E-01  8.00000000E-01
  1.50000000E+00  1.50000000E+00  8.00000000E-01  8.00000000E-01  1.50000000E+00
  1.50000000E+00  8.00000000E-01  8.00000000E-01  1.50000000E+00  1.50000000E+00
  8.00000000E-01  8.00000000E-01  1.50000000E+00  1.50000000E+00  8.00000000E-01
  8.00000000E-01  1.50000000E+00  1.50000000E+00  8.00000000E-01  8.00000000E-01
  1.50000000E+00  1.50000000E+00  8.00000000E-01  8.00000000E-01  1.50000000E+00
  1.50000000E+00  8.00000000E-01  8.00000000E-01  1.50000000E+00  1.50000000E+00
  8.00000000E-01  8.00000000E-01  1.50000000E+00  1.50000000E+00  8.00000000E-01
  8.00000000E-01  1.50000000E+00  1.50000000E+00  8.00000000E-01  8.00000000E-01
  1.50000000E+00  1.50000000E+00  8.00000000E-01  8.00000000E-01  1.50000000E+00
  1.50000000E+00  8.00000000E-01  8.00000000E-01  1.50000000E+00  1.50000000E+00
  8.00000000E-01  8.00000000E-01  1.50000000E+00  1.50000000E+00  8.00000000E-01
  8.00000000E-01  1.50000000E+00  1.50000000E+00  8.00000000E-01  8.00000000E-01
  1.50000000E+00  1.50000000E+00  8.00000000E-01  8.00000000E-01  1.50000000E+00
  1.50000000E+00  8.00000000E-01  8.00000000E-01  1.50000000E+00  1.50000000E+00
  8.00000000E-01  8.00000000E-01  1.50000000E+00  1.50000000E+00  8.00000000E-01
  8.00000000E-01  1.50000000E+00  1.50000000E+00  8.00000000E-01  8.00000000E-01
  1.50000000E+00  1.50000000E+00  8.00000000E-01  8.00000000E-01  1.50000000E+00
  1.50000000E+00  8.00000000E-01  8.00000000E-01  1.50000000E+00  1.50000000E+00
  8.00000000E-01  8.00000000E-01  1.50000000E+00  1.50000000E+00  8.00000000E-01
  8.00000000E-01  1.50000000E+00  1.50000000E+00  8.00000000E-01  8.00000000E-01
  1.50000000E+00  1.50000000E+00  8.00000000E-01  8.00000000E-01  1.50000000E+00
  1.50000000E+00  8.00000000E-01  8.00000000E-01  1.50000000E+00  1.50000000E+00
  8.00000000E-01  8.00000000E-01  1.50000000E+00  1.50000000E+00  8.00000000E-01
  8.00000000E-01  1.50000000E+00  1.50000000E+00  8.00000000E-01  8.00000000E-01
  1.50000000E+00  1.50000000E+00  8.00000000E-01  8.00000000E-01  1.50000000E+00
  1.50000000E+00  8.00000000E-01  8.00000000E-01  1.50000000E+00  1.50000000E+00
  8.00000000E-01  8.00000000E-01  1.50000000E+00  1.50000000E+00  8.00000000E-01
  8.00000000E-01  1.50000000E+00  1.50000000E+00  8.00000000E-01  8.00000000E-01
  1.50000000E+00  1.50000000E+00  8.00000000E-01  8.00000000E-01  1.50000000E+00
  1.50000000E+00  8.00000000E-01  8.00000000E-01  1.50000000E+00  1.50000000E+00
  8.00000000E-01  8.00000000E-01  1.50000000E+00  1.50000000E+00  8.00000000E-01
  8.00000000E-01  1.50000000E+00  1.50000000E+00  8.00000000E-01  8.00000000E-01
  1.50000000E+00  1.50000000E+00  8.00000000E-01  8.00000000E-01  1.50000000E+00
  1.50000000E+00  8.00000000E-01  8.00000000E-01  1.50000000E+00  1.50000000E+00
  8.00000000E-01  8.00000000E-01  1.50000000E+00  1.50000000E+00  8.00000000E-01
  8.00000000E-01  1.50000000E+00  1.50000000E+00  8.00000000E-01  8.00000000E-01
  1.50000000E+00  1.50000000E+00  8.00000000E-01  8.00000000E-01  1.50000000E+00
  1.50000000E+00  8.00000000E-01  8.00000000E-01  1.50000000E+00  1.50000000E+00
  8.00000000E-01  8.00000000E-01  1.50000000E+00  1.50000000E+00  8.00000000E-01
  8.00000000E-01  1.50000000E+00  1.50000000E+00  8.00000000E-01  8.00000000E-01
  1.50000000E+00  1.50000000E+00  8.00000000E-01  8.00000000E-01  1.50000000E+00
  1.50000000E+00  8.00000000E-01  8.00000000E-01  1.50000000E+00  1.50000000E+00
  8.00000000E-01  8.00000000E-01  1.50000000E+00  1.50000000E+00  8.00000000E-01
  8.00000000E-01  1.50000000E+00  1.50000000E+00  8.00000000E-01  8.00000000E-01
  1.50000000E+00  1.50000000E+00  8.00000000E-01  8.00000000E-01  1.50000000E+00
  1.50000000E+00  8.00000000E-01  8.00000000E-01  1.50000000E+00  1.50000000E+00
  8.00000000E-01  8.00000000E-01  1.50000000E+00  1.50000000E+00  8.00000000E-01
  8.00000000E-01  1.50000000E+00  1.50000000E+00  8.00000000E-01  8.00000000E-01
  1.50000000E+00  1.50000000E+00  8.00000000E-01  8.00000000E-01  1.50000000E+00
  1.50000000E+00  8.00000000E-01  8.00000000E-01  1.50000000E+00  1.50000000E+00
  8.00000000E-01  8.00000000E-01  1.50000000E+00  1.50000000E+00  8.00000000E-01
  8.00000000E-01  1.50000000E+00  1.50000000E+00  8.00000000E-01  8.00000000E-01
  1.50000000E+00  1.50000000E+00  8.00000000E-01  8.00000000E-01  1.50000000E+00
  1.50000000E+00  8.00000000E-01  8.00000000E-01  1.50000000E+00  1.50000000E+00
  8.00000000E-01  8.00000000E-01  1.50000000E+00  1.50000000E+00  8.00000000E-01
  8.00000000E-01  1.50000000E+00  1.50000000E+00  8.00000000E-01  8.00000000E-01
  1.50000000E+00  1.50000000E+00  8.00000000E-01  8.00000000E-01  1.50000000E+00
  1.50000000E+00  8.00000000E-01  8.00000000E-01  1.50000000E+00  1.50000000E+00
  8.00000000E-01  8.00000000E-01  1.50000000E+00  1.50000000E+00  8.00000000E-01
  8.00000000E-01  1.50000000E+00  1.50000000E+00  8.00000000E-01  8.00000000E-01
  1.50000000E+00  1.50000000E+00  8.00000000E-01  8.00000000E-01  1.50000000E+00
  1.50000000E+00  8.00000000E-01  8.00000000E-01  1.50000000E+00  1.50000000E+00
  8.00000000E-01  8.00000000E-01  1.50000000E+00  1.50000000E+00  8.00000000E-01
  8.00000000E-01  1.50000000E+00  1.50000000E+00  8.00000000E-01  8.00000000E-01
  1.50000000E+00  1.50000000E+00  8.00000000E-01  8.00000000E-01  1.50000000E+00
  1.50000000E+00  8.00000000E-01  8.00000000E-01  1.50000000E+00  1.50000000E+00
  8.00000000E-01  8.00000000E-01  1.50000000E+00  1.50000000E+00  8.00000000E-01
  8.00000000E-01  1.50000000E+00  1.50000000E+00  8.00000000E-01  8.00000000E-01
  1.50000000E+00  1.50000000E+00  8.00000000E-01  8.00000000E-01  1.50000000E+00
  1.50000000E+00  8.00000000E-01  8.00000000E-01  1.50000000E+00  1.50000000E+00
  8.00000000E-01  8.00000000E-01  1.50000000E+00  1.50000000E+00  8.00000000E-01
  8.00000000E-01  1.50000000E+00  1.50000000E+00  8.00000000E-01  8.00000000E-01
  1.50000000E+00  1.50000000E+00  8.00000000E-01  8.00000000E-01  1.50000000E+00
  1.50000000E+00  8.00000000E-01  8.00000000E-01  1.50000000E+00  1.50000000E+00
  8.00000000E-01  8.00000000E-01  1.50000000E+00  1.50000000E+00  8.00000000E-01
  8.00000000E-01  1.50000000E+00  1.50000000E+00  8.00000000E-01  8.00000000E-01
  1.50000000E+00  1.50000000E+00  8.00000000E-01  8.00000000E-01  1.50000000E+00
  1.50000000E+00  8.00000000E-01  8.00000000E-01  1.50000000E+00  1.50000000E+00
  8.00000000E-01  8.00000000E-01  1.50000000E+00  1.50000000E+00  8.00000000E-01
  8.00000000E-01  1.50000000E+00  1.50000000E+00  8.00000000E-01  8.00000000E-01
  1.50000000E+00  1.50000000E+00  8.00000000E-01  8.00000000E-01  1.50000000E+00
  1.50000000E+00  8.00000000E-01  8.00000000E-01  1.50000000E+00  1.50000000E+00
  8.00000000E-01  8.00000000E-01  1.50000000E+00  1.50000000E+00  8.00000000E-01
  8.00000000E-01  1.50000000E+00  1.50000000E+00  8.00000000E-01  8.00000000E-01
  1.50000000E+00  1.50000000E+00  8.00000000E-01  8.00000000E-01  1.50000000E+00
  1.50000000E+00  8.00000000E-01  8.00000000E-01  1.50000000E+00  1.50000000E+00
  8.00000000E-01  8.00000000E-01  1.50000000E+00  1.50000000E+00  8.00000000E-01
  8.00000000E-01  1.50000000E+00  1.50000000E+00  8.00000000E-01  8.00000000E-01
  1.50000000E+00  1.50000000E+00  8.00000000E-01  8.00000000E-01  1.50000000E+00
  1.50000000E+00  8.00000000E-01  8.00000000E-01  1.50000000E+00  1.50000000E+00
  8.00000000E-01  8.00000000E-01  1.50000000E+00  1.50000000E+00  8.00000000E-01
  8.00000000E-01  1.50000000E+00  1.50000000E+00  8.00000000E-01  8.00000000E-01
  1.50000000E+00  1.50000000E+00  8.00000000E-01  8.00000000E-01  1.50000000E+00
  1.50000000E+00  8.00000000E-01  8.00000000E-01  1.50000000E+00  1.50000000E+00
  8.00000000E-01  8.00000000E-01  1.50000000E+00  1.50000000E+00  8.00000000E-01
  8.00000000E-01  1.50000000E+00  1.50000000E+00  8.00000000E-01  8.00000000E-01
  1.50000000E+00  1.50000000E+00  8.00000000E-01  8.00000000E-01  1.50000000E+00
  1.50000000E+00  8.00000000E-01  8.00000000E-01  1.50000000E+00  1.50000000E+00
  8.00000000E-01  8.00000000E-01  1.50000000E+00  1.50000000E+00  8.00000000E-01
  8.00000000E-01  1.50000000E+00  1.50000000E+00  8.00000000E-01  8.00000000E-01
  1.50000000E+00  1.50000000E+00  8.00000000E-01  8.00000000E-01  1.50000000E+00
  1.50000000E+00  8.00000000E-01  8.00000000E-01  1.50000000E+00  1.50000000E+00
  8.00000000E-01  8.00000000E-01  1.50000000E+00  1.50000000E+00  8.00000000E-01
  8.00000000E-01  1.50000000E+00  1.50000000E+00  8.00000000E-01  8.00000000E-01
  1.50000000E+00  1.50000000E+00  8.00000000E-01  8.00000000E-01  1.50000000E+00
  1.50000000E+00  8.00000000E-01  8.00000000E-01  1.50000000E+00  1.50000000E+00
  8.00000000E-01  8.00000000E-01  1.50000000E+00  1.50000000E+00  8.00000000E-01
  8.00000000E-01  1.50000000E+00  1.50000000E+00  8.00000000E-01  8.00000000E-01
  1.50000000E+00  1.50000000E+00  8.00000000E-01  8.00000000E-01  1.50000000E+00
  1.50000000E+00  8.00000000E-01  8.00000000E-01  1.50000000E+00  1.50000000E+00
  8.00000000E-01  8.00000000E-01  1.50000000E+00  1.50000000E+00  8.00000000E-01
  8.00000000E-01  1.50000000E+00  1.50000000E+00  8.00000000E-01  8.00000000E-01
  1.50000000E+00  1.50000000E+00  8.00000000E-01  8.00000000E-01  1.50000000E+00
  1.50000000E+00  8.00000000E-01  8.00000000E-01  1.50000000E+00  1.50000000E+00
  8.00000000E-01  8.00000000E-01  1.50000000E+00  1.50000000E+00  8.00000000E-01
  8.00000000E-01  1.50000000E+00  1.50000000E+00  8.00000000E-01  8.00000000E-01
  1.50000000E+00  1.50000000E+00  8.00000000E-01  8.00000000E-01  1.50000000E+00
  1.50000000E+00  8.00000000E-01  8.00000000E-01  1.50000000E+00  1.50000000E+00
  8.00000000E-01  8.00000000E-01  1.50000000E+00  1.50000000E+00  8.00000000E-01
  8.00000000E-01  1.50000000E+00  1.50000000E+00  8.00000000E-01  8.00000000E-01
  1.50000000E+00  1.50000000E+00  8.00000000E-01  8.00000000E-01  1.50000000E+00
  1.50000000E+00  8.00000000E-01  8.00000000E-01  1.50000000E+00  1.50000000E+00
  8.00000000E-01  8.00000000E-01  1.50000000E+00  1.50000000E+00  8.00000000E-01
  8.00000000E-01  1.50000000E+00  1.50000000E+00  8.00000000E-01  8.00000000E-01
  1.50000000E+00  1.50000000E+00  8.00000000E-01  8.00000000E-01  1.50000000E+00
  1.50000000E+00  8.00000000E-01  8.00000000E-01  1.50000000E+00  1.50000000E+00
  8.00000000E-01  8.00000000E-01  1.50000000E+00  1.50000000E+00  8.00000000E-01
  8.00000000E-01  1.50000000E+00  1.50000000E+00  8.00000000E-01  8.00000000E-01
  1.50000000E+00  1.50000000E+00  8.00000000E-01  8.00000000E-01  1.50000000E+00
  1.50000000E+00  8.00000000E-01  8.00000000E-01  1.50000000E+00  1.50000000E+00
  8.00000000E-01  8.00000000E-01  1.50000000E+00  1.50000000E+00  8.00000000E-01
  8.00000000E-01  1.50000000E+00  1.50000000E+00  8.00000000E-01  8.00000000E-01
  1.50000000E+00  1.50000000E+00  8.00000000E-01  8.00000000E-01  1.50000000E+00
  1.50000000E+00  8.00000000E-01  8.00000000E-01  1.50000000E+00  1.50000000E+00
  8.00000000E-01  8.00000000E-01  1.50000000E+00  1.50000000E+00  8.00000000E-01
  8.00000000E-01  1.50000000E+00  1.50000000E+00  8.00000000E-01  8.00000000E-01
  1.50000000E+00  1.50000000E+00  8.00000000E-01  8.00000000E-01  1.50000000E+00
  1.50000000E+00  8.00000000E-01  8.00000000E-01  1.50000000E+00  1.50000000E+00
  8.00000000E-01  8.00000000E-01  1.50000000E+00  1.50000000E+00  8.00000000E-01
  8.00000000E-01  1.50000000E+00  1.50000000E+00  8.00000000E-01  8.00000000E-01
  1.50000000E+00  1.50000000E+00  8.00000000E-01  8.00000000E-01  1.50000000E+00
  1.50000000E+00  8.00000000E-01  8.00000000E-01  1.50000000E+00  1.50000000E+00
  8.00000000E-01  8.00000000E-01  1.50000000E+00  1.50000000E+00  8.00000000E-01
  8.00000000E-01  1.50000000E+00  1.50000000E+00  8.00000000E-01  8.00000000E-01
  1.50000000E+00  1.50000000E+00  8.00000000E-01  8.00000000E-01  1.50000000E+00
  1.50000000E+00  8.00000000E-01  8.00000000E-01  1.50000000E+00  1.50000000E+00
  8.00000000E-01  8.00000000E-01  1.50000000E+00  1.50000000E+00  8.00000000E-01
  8.00000000E-01  1.50000000E+00  1.50000000E+00  8.00000000E-01  8.00000000E-01
  1.50000000E+00  1.50000000E+00  8.00000000E-01  8.00000000E-01  1.50000000E+00
  1.50000000E+00  8.00000000E-01  8.00000000E-01  1.50000000E+00  1.50000000E+00
  8.00000000E-01  8.00000000E-01  1.50000000E+00  1.50000000E+00  8.00000000E-01
  8.00000000E-01  1.50000000E+00  1.50000000E+00  8.00000000E-01  8.00000000E-01
  1.50000000E+00  1.50000000E+00  8.00000000E-01  8.00000000E-01  1.50000000E+00
  1.50000000E+00  8.00000000E-01  8.00000000E-01  1.50000000E+00  1.50000000E+00
  8.00000000E-01  8.00000000E-01  1.50000000E+00  1.50000000E+00  8.00000000E-01
  8.00000000E-01  1.50000000E+00  1.50000000E+00  8.00000000E-01  8.00000000E-01
  1.50000000E+00  1.50000000E+00  8.00000000E-01  8.00000000E-01  1.50000000E+00
  1.50000000E+00  8.00000000E-01  8.00000000E-01  1.50000000E+00  1.50000000E+00
  8.00000000E-01  8.00000000E-01  1.50000000E+00  1.50000000E+00  8.00000000E-01
  8.00000000E-01  1.50000000E+00  1.50000000E+00  8.00000000E-01  8.00000000E-01
  1.50000000E+00  1.50000000E+00  8.00000000E-01  8.00000000E-01  1.50000000E+00
  1.50000000E+00  8.00000000E-01  8.00000000E-01  1.50000000E+00  1.50000000E+00
  8.00000000E-01  8.00000000E-01  1.50000000E+00  1.50000000E+00  8.00000000E-01
  8.00000000E-01  1.50000000E+00  1.50000000E+00  8.00000000E-01  8.00000000E-01
  1.50000000E+00  1.50000000E+00  8.00000000E-01  8.00000000E-01  1.50000000E+00
  1.50000000E+00  8.00000000E-01  8.00000000E-01  1.50000000E+00  1.50000000E+00
  8.00000000E-01  8.00000000E-01  1.50000000E+00  1.50000000E+00  8.00000000E-01
  8.00000000E-01  1.50000000E+00  1.50000000E+00  8.00000000E-01  8.00000000E-01
  1.50000000E+00  1.50000000E+00  8.00000000E-01  8.00000000E-01  1.50000000E+00
  1.50000000E+00  8.00000000E-01  8.00000000E-01  1.50000000E+00  1.50000000E+00
  8.00000000E-01  8.00000000E-01  1.50000000E+00  1.50000000E+00  8.00000000E-01
  8.00000000E-01  1.50000000E+00  1.50000000E+00  8.00000000E-01  8.00000000E-01
  1.50000000E+00  1.50000000E+00  8.00000000E-01  8.00000000E-01  1.50000000E+00
  1.50000000E+00  8.00000000E-01  8.00000000E-01  1.50000000E+00  1.50000000E+00
  8.00000000E-01  8.00000000E-01  1.50000000E+00  1.50000000E+00  8.00000000E-01
  8.00000000E-01  1.50000000E+00  1.50000000E+00  8.00000000E-01  8.00000000E-01
  1.50000000E+00  1.50000000E+00  8.00000000E-01  8.00000000E-01  1.50000000E+00
  1.50000000E+00  8.00000000E-01  8.00000000E-01  1.50000000E+00  1.50000000E+00
  8.00000000E-01  8.00000000E-01  1.50000000E+00  1.50000000E+00  8.00000000E-01
  8.00000000E-01  1.50000000E+00  1.50000000E+00  8.00000000E-01  8.00000000E-01
  1.50000000E+00  1.50000000E+00  8.00000000E-01  8.00000000E-01  1.50000000E+00
  1.50000000E+00  8.00000000E-01  8.00000000E-01  1.50000000E+00  1.50000000E+00
  8.00000000E-01  8.00000000E-01  1.50000000E+00  1.50000000E+00  8.00000000E-01
  8.00000000E-01  1.50000000E+00  1.50000000E+00  8.00000000E-01  8.00000000E-01
  1.50000000E+00  1.50000000E+00  8.00000000E-01  8.00000000E-01  1.50000000E+00
  1.50000000E+00  8.00000000E-01  8.00000000E-01  1.50000000E+00  1.50000000E+00
  8.00000000E-01  8.00000000E-01  1.50000000E+00  1.50000000E+00  8.00000000E-01
  8.00000000E-01  1.50000000E+00  1.50000000E+00  8.00000000E-01  8.00000000E-01
  1.50000000E+00  1.50000000E+00  8.00000000E-01  8.00000000E-01  1.50000000E+00
  1.50000000E+00  8.00000000E-01  8.00000000E-01  1.50000000E+00  1.50000000E+00
  8.00000000E-01  8.00000000E-01  1.50000000E+00  1.50000000E+00  8.00000000E-01
  8.00000000E-01  1.50000000E+00  1.50000000E+00  8.00000000E-01  8.00000000E-01
  1.50000000E+00  1.50000000E+00  8.00000000E-01  8.00000000E-01  1.50000000E+00
  1.50000000E+00  8.00000000E-01  8.00000000E-01  1.50000000E+00  1.50000000E+00
  8.00000000E-01  8.00000000E-01  1.50000000E+00  1.50000000E+00  8.00000000E-01
  8.00000000E-01  1.50000000E+00  1.50000000E+00  8.00000000E-01  8.00000000E-01
  1.50000000E+00  1.50000000E+00  8.00000000E-01  8.00000000E-01  1.50000000E+00
  1.50000000E+00  8.00000000E-01  8.00000000E-01  1.50000000E+00  1.50000000E+00
  8.00000000E-01  8.00000000E-01  1.50000000E+00  1.50000000E+00  8.00000000E-01
  8.00000000E-01  1.50000000E+00  1.50000000E+00  8.00000000E-01  8.00000000E-01
  1.50000000E+00  1.50000000E+00  8.00000000E-01  8.00000000E-01  1.50000000E+00
  1.50000000E+00  8.00000000E-01  8.00000000E-01  1.50000000E+00  1.50000000E+00
  8.00000000E-01  8.00000000E-01  1.50000000E+00  1.50000000E+00  8.00000000E-01
  8.00000000E-01  1.50000000E+00  1.50000000E+00  8.00000000E-01  8.00000000E-01
  1.50000000E+00  1.50000000E+00  8.00000000E-01  8.00000000E-01  1.50000000E+00
  1.50000000E+00  8.00000000E-01  8.00000000E-01  1.50000000E+00  1.50000000E+00
  8.00000000E-01  8.00000000E-01  1.50000000E+00  1.50000000E+00  8.00000000E-01
  8.00000000E-01  1.50000000E+00  1.50000000E+00  8.00000000E-01  8.00000000E-01
  1.50000000E+00  1.50000000E+00  8.00000000E-01  8.00000000E-01  1.50000000E+00
  1.50000000E+00  8.00000000E-01  8.00000000E-01  1.50000000E+00  1.50000000E+00
  8.00000000E-01  8.00000000E-01  1.50000000E+00  1.50000000E+00  8.00000000E-01
  8.00000000E-01  1.50000000E+00  1.50000000E+00  8.00000000E-01  8.00000000E-01
  1.50000000E+00  1.50000000E+00  8.00000000E-01  8.00000000E-01  1.50000000E+00
  1.50000000E+00  8.00000000E-01  8.00000000E-01  1.50000000E+00  1.50000000E+00
  8.00000000E-01  8.00000000E-01  1.50000000E+00  1.50000000E+00  8.00000000E-01
  8.00000000E-01  1.50000000E+00  1.50000000E+00  8.00000000E-01  8.00000000E-01
  1.50000000E+00  1.50000000E+00  8.00000000E-01  8.00000000E-01  1.50000000E+00
  1.50000000E+00  8.00000000E-01  8.00000000E-01  1.50000000E+00  1.50000000E+00
  8.00000000E-01  8.00000000E-01  1.50000000E+00  1.50000000E+00  8.00000000E-01
  8.00000000E-01  1.50000000E+00  1.50000000E+00  8.00000000E-01  8.00000000E-01
  1.50000000E+00  1.50000000E+00  8.00000000E-01  8.00000000E-01  1.50000000E+00
  1.50000000E+00  8.00000000E-01  8.00000000E-01  1.50000000E+00  1.50000000E+00
  8.00000000E-01  8.00000000E-01  1.50000000E+00  1.50000000E+00  8.00000000E-01
  8.00000000E-01  1.50000000E+00  1.50000000E+00  8.00000000E-01  8.00000000E-01
  1.50000000E+00  1.50000000E+00  8.00000000E-01  8.00000000E-01  1.50000000E+00
  1.50000000E+00  8.00000000E-01  8.00000000E-01  1.50000000E+00  1.50000000E+00
  8.00000000E-01  8.00000000E-01  1.50000000E+00  1.50000000E+00  8.00000000E-01
  8.00000000E-01  1.50000000E+00  1.50000000E+00  8.00000000E-01  8.00000000E-01
  1.50000000E+00  1.50000000E+00  8.00000000E-01  8.00000000E-01  1.50000000E+00
  1.50000000E+00  8.00000000E-01  8.00000000E-01  1.50000000E+00  1.50000000E+00
  8.00000000E-01  8.00000000E-01  1.50000000E+00  1.50000000E+00  8.00000000E-01
  8.00000000E-01  1.50000000E+00  1.50000000E+00  8.00000000E-01  8.00000000E-01
  1.50000000E+00  1.50000000E+00  8.00000000E-01  8.00000000E-01  1.50000000E+00
  1.50000000E+00  8.00000000E-01  8.00000000E-01  1.50000000E+00  1.50000000E+00
  8.00000000E-01  8.00000000E-01  1.50000000E+00  1.50000000E+00  8.00000000E-01
  8.00000000E-01  1.50000000E+00  1.50000000E+00  8.00000000E-01  8.00000000E-01
  1.50000000E+00  1.50000000E+00  8.00000000E-01  8.00000000E-01  1.50000000E+00
  1.50000000E+00  8.00000000E-01  8.00000000E-01  1.50000000E+00  1.50000000E+00
  8.00000000E-01  8.00000000E-01  1.50000000E+00  1.50000000E+00  8.00000000E-01
  8.00000000E-01  1.50000000E+00  1.50000000E+00  8.00000000E-01  8.00000000E-01
  1.50000000E+00  1.50000000E+00  8.00000000E-01  8.00000000E-01  1.50000000E+00
  1.50000000E+00  8.00000000E-01  8.00000000E-01  1.50000000E+00  1.50000000E+00
  8.00000000E-01  8.00000000E-01  1.50000000E+00  1.50000000E+00  8.00000000E-01
  8.00000000E-01  1.50000000E+00  1.50000000E+00  8.00000000E-01  8.00000000E-01
  1.50000000E+00  1.50000000E+00  8.00000000E-01  8.00000000E-01  1.50000000E+00
  1.50000000E+00  8.00000000E-01  8.00000000E-01  1.50000000E+00  1.50000000E+00
  8.00000000E-01  8.00000000E-01  1.50000000E+00  1.50000000E+00  8.00000000E-01
  8.00000000E-01  1.50000000E+00  1.50000000E+00  8.00000000E-01  8.00000000E-01
  1.50000000E+00  1.50000000E+00  8.00000000E-01  8.00000000E-01  1.50000000E+00
  1.50000000E+00  8.00000000E-01  8.00000000E-01  1.50000000E+00  1.50000000E+00
  8.00000000E-01  8.00000000E-01  1.50000000E+00  1.50000000E+00  8.00000000E-01
  8.00000000E-01  1.50000000E+00  1.50000000E+00  8.00000000E-01  8.00000000E-01
  1.50000000E+00  1.50000000E+00  8.00000000E-01  8.00000000E-01  1.50000000E+00
  1.50000000E+00  8.00000000E-01  8.00000000E-01  1.50000000E+00  1.50000000E+00
  8.00000000E-01  8.00000000E-01  1.50000000E+00  1.50000000E+00  8.00000000E-01
  8.00000000E-01  1.50000000E+00  1.50000000E+00  8.00000000E-01  8.00000000E-01
  1.50000000E+00  1.50000000E+00  8.00000000E-01  8.00000000E-01  1.50000000E+00
  1.50000000E+00  8.00000000E-01  8.00000000E-01  1.50000000E+00  1.50000000E+00
  8.00000000E-01  8.00000000E-01  1.50000000E+00  1.50000000E+00  8.00000000E-01
  8.00000000E-01  1.50000000E+00  1.50000000E+00  8.00000000E-01  8.00000000E-01
  1.50000000E+00  1.50000000E+00  8.00000000E-01  8.00000000E-01  1.50000000E+00
  1.50000000E+00  8.00000000E-01  8.00000000E-01  1.50000000E+00  1.50000000E+00
  8.00000000E-01  8.00000000E-01  1.50000000E+00  1.50000000E+00  8.00000000E-01
  8.00000000E-01  1.50000000E+00  1.50000000E+00  8.00000000E-01  8.00000000E-01
  1.50000000E+00  1.50000000E+00  8.00000000E-01  8.00000000E-01  1.50000000E+00
  1.50000000E+00  8.00000000E-01  8.00000000E-01  1.50000000E+00  1.50000000E+00
  8.00000000E-01  8.00000000E-01  1.50000000E+00  1.50000000E+00  8.00000000E-01
  8.00000000E-01  1.50000000E+00  1.50000000E+00  8.00000000E-01  8.00000000E-01
  1.50000000E+00  1.50000000E+00  8.00000000E-01  8.00000000E-01  1.50000000E+00
  1.50000000E+00  8.00000000E-01  8.00000000E-01  1.50000000E+00  1.50000000E+00
  8.00000000E-01  8.00000000E-01  1.50000000E+00  1.50000000E+00  8.00000000E-01
  8.00000000E-01  1.50000000E+00  1.50000000E+00  8.00000000E-01  8.00000000E-01
  1.50000000E+00  1.50000000E+00  8.00000000E-01  8.00000000E-01  1.50000000E+00
  1.50000000E+00  8.00000000E-01  8.00000000E-01  1.50000000E+00  1.50000000E+00
  8.00000000E-01  8.00000000E-01  1.50000000E+00  1.50000000E+00  8.00000000E-01
  8.00000000E-01  1.50000000E+00  1.50000000E+00  8.00000000E-01  8.00000000E-01
  1.50000000E+00  1.50000000E+00  8.00000000E-01  8.00000000E-01  1.50000000E+00
  1.50000000E+00  8.00000000E-01  8.00000000E-01  1.50000000E+00  1.50000000E+00
  8.00000000E-01  8.00000000E-01  1.50000000E+00  1.50000000E+00  8.00000000E-01
  8.00000000E-01  1.50000000E+00  1.50000000E+00  8.00000000E-01  8.00000000E-01
  1.50000000E+00  1.50000000E+00  8.00000000E-01  8.00000000E-01  1.50000000E+00
  1.50000000E+00  8.00000000E-01  8.00000000E-01  1.50000000E+00  1.50000000E+00
  8.00000000E-01  8.00000000E-01  1.50000000E+00  1.50000000E+00  8.00000000E-01
  8.00000000E-01  1.50000000E+00  1.50000000E+00  8.00000000E-01  8.00000000E-01
  1.50000000E+00  1.50000000E+00  8.00000000E-01  8.00000000E-01  1.50000000E+00
  1.50000000E+00  8.00000000E-01  8.00000000E-01  1.50000000E+00  1.50000000E+00
  8.00000000E-01  8.00000000E-01  1.50000000E+00  1.50000000E+00  8.00000000E-01
  8.00000000E-01  1.50000000E+00  1.50000000E+00  8.00000000E-01  8.00000000E-01
  1.50000000E+00  1.50000000E+00  8.00000000E-01  8.00000000E-01  1.50000000E+00
  1.50000000E+00  8.00000000E-01  8.00000000E-01  1.50000000E+00  1.50000000E+00
  8.00000000E-01  8.00000000E-01  1.50000000E+00  1.50000000E+00  8.00000000E-01
  8.00000000E-01  1.50000000E+00  1.50000000E+00  8.00000000E-01  8.00000000E-01
  1.50000000E+00  1.50000000E+00  8.00000000E-01  8.00000000E-01  1.50000000E+00
  1.50000000E+00  8.00000000E-01  8.00000000E-01  1.50000000E+00  1.50000000E+00
  8.00000000E-01  8.00000000E-01  1.50000000E+00  1.50000000E+00  8.00000000E-01
  8.00000000E-01  1.50000000E+00  1.50000000E+00  8.00000000E-01  8.00000000E-01
  1.50000000E+00  1.50000000E+00  8.00000000E-01  8.00000000E-01  1.50000000E+00
  1.50000000E+00  8.00000000E-01  8.00000000E-01  1.50000000E+00  1.50000000E+00
  8.00000000E-01  8.00000000E-01  1.50000000E+00  1.50000000E+00  8.00000000E-01
  8.00000000E-01  1.50000000E+00  1.50000000E+00  8.00000000E-01  8.00000000E-01
  1.50000000E+00  1.50000000E+00  8.00000000E-01  8.00000000E-01  1.50000000E+00
  1.50000000E+00  8.00000000E-01  8.00000000E-01  1.50000000E+00  1.50000000E+00
  8.00000000E-01  8.00000000E-01  1.50000000E+00  1.50000000E+00  8.00000000E-01
  8.00000000E-01  1.50000000E+00  1.50000000E+00  8.00000000E-01  8.00000000E-01
  1.50000000E+00  1.50000000E+00  8.00000000E-01  8.00000000E-01  1.50000000E+00
  1.50000000E+00  8.00000000E-01  8.00000000E-01  1.50000000E+00  1.50000000E+00
  8.00000000E-01  8.00000000E-01  1.50000000E+00  1.50000000E+00  8.00000000E-01
  8.00000000E-01  1.50000000E+00  1.50000000E+00  8.00000000E-01  8.00000000E-01
  1.50000000E+00  1.50000000E+00  8.00000000E-01  8.00000000E-01  1.50000000E+00
  1.50000000E+00  8.00000000E-01  8.00000000E-01  1.50000000E+00  1.50000000E+00
  8.00000000E-01  8.00000000E-01  1.50000000E+00  1.50000000E+00  8.00000000E-01
  8.00000000E-01  1.50000000E+00  1.50000000E+00  8.00000000E-01  8.00000000E-01
  1.50000000E+00  1.50000000E+00  8.00000000E-01  8.00000000E-01  1.50000000E+00
  1.50000000E+00  8.00000000E-01  8.00000000E-01  1.50000000E+00  1.50000000E+00
  8.00000000E-01  8.00000000E-01  1.50000000E+00  1.50000000E+00  8.00000000E-01
  8.00000000E-01  1.50000000E+00  1.50000000E+00  8.00000000E-01  8.00000000E-01
  1.50000000E+00  1.50000000E+00  8.00000000E-01  8.00000000E-01  1.50000000E+00
  1.50000000E+00  8.00000000E-01  8.00000000E-01  1.50000000E+00  1.50000000E+00
  8.00000000E-01  8.00000000E-01  1.50000000E+00  1.50000000E+00  8.00000000E-01
  8.00000000E-01  1.50000000E+00  1.50000000E+00  8.00000000E-01  8.00000000E-01
  1.50000000E+00  1.50000000E+00  8.00000000E-01  8.00000000E-01  1.50000000E+00
  1.50000000E+00  8.00000000E-01  8.00000000E-01  1.50000000E+00  1.50000000E+00
  8.00000000E-01  8.00000000E-01  1.50000000E+00  1.50000000E+00  8.00000000E-01
  8.00000000E-01  1.50000000E+00  1.50000000E+00  8.00000000E-01  8.00000000E-01
  1.50000000E+00  1.50000000E+00  8.00000000E-01  8.00000000E-01  1.50000000E+00
  1.50000000E+00  8.00000000E-01  8.00000000E-01  1.50000000E+00  1.50000000E+00
  8.00000000E-01  8.00000000E-01  1.50000000E+00  1.50000000E+00  8.00000000E-01
  8.00000000E-01  1.50000000E+00  1.50000000E+00  8.00000000E-01  8.00000000E-01
  1.50000000E+00  1.50000000E+00  8.00000000E-01  8.00000000E-01  1.50000000E+00
  1.50000000E+00  8.00000000E-01  8.00000000E-01  1.50000000E+00  1.50000000E+00
  8.00000000E-01  8.00000000E-01  1.50000000E+00  1.50000000E+00  8.00000000E-01
  8.00000000E-01  1.50000000E+00  1.50000000E+00  8.00000000E-01  8.00000000E-01
  1.50000000E+00  1.50000000E+00  8.00000000E-01  8.00000000E-01  1.50000000E+00
  1.50000000E+00  8.00000000E-01  8.00000000E-01  1.50000000E+00  1.50000000E+00
  8.00000000E-01  8.00000000E-01  1.50000000E+00  1.50000000E+00  8.00000000E-01
  8.00000000E-01  1.50000000E+00  1.50000000E+00  8.00000000E-01  8.00000000E-01
  1.50000000E+00  1.50000000E+00  8.00000000E-01  8.00000000E-01  1.50000000E+00
  1.50000000E+00  8.00000000E-01  8.00000000E-01  1.50000000E+00  1.50000000E+00
  8.00000000E-01  8.00000000E-01  1.50000000E+00  1.50000000E+00  8.00000000E-01
  8.00000000E-01  1.50000000E+00  1.50000000E+00  8.00000000E-01  8.00000000E-01
  1.50000000E+00  1.50000000E+00  8.00000000E-01  8.00000000E-01  1.50000000E+00
  1.50000000E+00  8.00000000E-01  8.00000000E-01  1.50000000E+00  1.50000000E+00
  8.00000000E-01  8.00000000E-01  1.50000000E+00  1.50000000E+00  8.00000000E-01
  8.00000000E-01  1.50000000E+00  1.50000000E+00  8.00000000E-01  8.00000000E-01
  1.50000000E+00  1.50000000E+00  8.00000000E-01  8.00000000E-01  1.50000000E+00
  1.50000000E+00  8.00000000E-01  8.00000000E-01  1.50000000E+00  1.50000000E+00
  8.00000000E-01  8.00000000E-01  1.50000000E+00  1.50000000E+00  8.00000000E-01
  8.00000000E-01  1.50000000E+00  1.50000000E+00  8.00000000E-01  8.00000000E-01
  1.50000000E+00  1.50000000E+00  8.00000000E-01  8.00000000E-01  1.50000000E+00
  1.50000000E+00  8.00000000E-01  8.00000000E-01  1.50000000E+00  1.50000000E+00
  8.00000000E-01  8.00000000E-01  1.50000000E+00  1.50000000E+00  8.00000000E-01
  8.00000000E-01  1.50000000E+00  1.50000000E+00  8.00000000E-01  8.00000000E-01
  1.50000000E+00  1.50000000E+00  8.00000000E-01  8.00000000E-01  1.50000000E+00
  1.50000000E+00  8.00000000E-01  8.00000000E-01  1.50000000E+00  1.50000000E+00
  8.00000000E-01  8.00000000E-01  1.50000000E+00  1.50000000E+00  8.00000000E-01
  8.00000000E-01  1.50000000E+00  1.50000000E+00  8.00000000E-01  8.00000000E-01
  1.50000000E+00  1.50000000E+00  8.00000000E-01  8.00000000E-01  1.50000000E+00
  1.50000000E+00  8.00000000E-01  8.00000000E-01  1.50000000E+00  1.50000000E+00
  8.00000000E-01  8.00000000E-01  1.50000000E+00  1.50000000E+00  8.00000000E-01
  8.00000000E-01  1.50000000E+00  1.50000000E+00  8.00000000E-01  8.00000000E-01
  1.50000000E+00  1.50000000E+00  8.00000000E-01  8.00000000E-01  1.50000000E+00
  1.50000000E+00  8.00000000E-01  8.00000000E-01  1.50000000E+00  1.50000000E+00
  8.00000000E-01  8.00000000E-01  1.50000000E+00  1.50000000E+00  8.00000000E-01
  8.00000000E-01  1.50000000E+00  1.50000000E+00  8.00000000E-01  8.00000000E-01
  1.50000000E+00  1.50000000E+00  8.00000000E-01  8.00000000E-01  1.50000000E+00
  1.50000000E+00  8.00000000E-01  8.00000000E-01  1.50000000E+00  1.50000000E+00
  8.00000000E-01  8.00000000E-01  1.50000000E+00  1.50000000E+00  8.00000000E-01
  8.00000000E-01  1.50000000E+00  1.50000000E+00  8.00000000E-01  8.00000000E-01
  1.50000000E+00  1.50000000E+00  8.00000000E-01  8.00000000E-01  1.50000000E+00
  1.50000000E+00  8.00000000E-01  8.00000000E-01  1.50000000E+00  1.50000000E+00
  8.00000000E-01  8.00000000E-01  1.50000000E+00  1.50000000E+00  8.00000000E-01
  8.00000000E-01  1.50000000E+00  1.50000000E+00  8.00000000E-01  8.00000000E-01
  1.50000000E+00  1.50000000E+00  8.00000000E-01  8.00000000E-01  1.50000000E+00
  1.50000000E+00  8.00000000E-01  8.00000000E-01  1.50000000E+00  1.50000000E+00
  8.00000000E-01  8.00000000E-01  1.50000000E+00  1.50000000E+00  8.00000000E-01
  8.00000000E-01  1.50000000E+00  1.50000000E+00  8.00000000E-01  8.00000000E-01
  1.50000000E+00  1.50000000E+00  8.00000000E-01  8.00000000E-01  1.50000000E+00
  1.50000000E+00  8.00000000E-01  8.00000000E-01  1.50000000E+00  1.50000000E+00
  8.00000000E-01  8.00000000E-01  1.50000000E+00  1.50000000E+00  8.00000000E-01
  8.00000000E-01  1.50000000E+00  1.50000000E+00  8.00000000E-01  8.00000000E-01
  1.50000000E+00  1.50000000E+00  8.00000000E-01  8.00000000E-01  1.50000000E+00
  1.50000000E+00  8.00000000E-01  8.00000000E-01  1.50000000E+00  1.50000000E+00
  8.00000000E-01  8.00000000E-01  1.50000000E+00  1.50000000E+00  8.00000000E-01
  8.00000000E-01  1.50000000E+00  1.50000000E+00  8.00000000E-01  8.00000000E-01
  1.50000000E+00  1.50000000E+00  8.00000000E-01  8.00000000E-01  1.50000000E+00
  1.50000000E+00  8.00000000E-01  8.00000000E-01  1.50000000E+00  1.50000000E+00
  8.00000000E-01  8.00000000E-01  1.50000000E+00  1.50000000E+00  8.00000000E-01
  8.00000000E-01  1.50000000E+00  1.50000000E+00  8.00000000E-01  8.00000000E-01
  1.50000000E+00  1.50000000E+00  8.00000000E-01  8.00000000E-01  1.50000000E+00
  1.50000000E+00  8.00000000E-01  8.00000000E-01  1.50000000E+00  1.50000000E+00
  8.00000000E-01  8.00000000E-01  1.50000000E+00  1.50000000E+00  8.00000000E-01
  8.00000000E-01  1.50000000E+00  1.50000000E+00  8.00000000E-01  8.00000000E-01
  1.50000000E+00  1.50000000E+00  8.00000000E-01  8.00000000E-01  1.50000000E+00
  1.50000000E+00  8.00000000E-01  8.00000000E-01  1.50000000E+00  1.50000000E+00
  8.00000000E-01  8.00000000E-01  1.50000000E+00  1.50000000E+00  8.00000000E-01
  8.00000000E-01  1.50000000E+00  1.50000000E+00  8.00000000E-01  8.00000000E-01
  1.50000000E+00  1.50000000E+00  8.00000000E-01  8.00000000E-01  1.50000000E+00
  1.50000000E+00  8.00000000E-01  8.00000000E-01  1.50000000E+00  1.50000000E+00
  8.00000000E-01  8.00000000E-01  1.50000000E+00  1.50000000E+00  8.00000000E-01
  8.00000000E-01  1.50000000E+00  1.50000000E+00  8.00000000E-01  8.00000000E-01
  1.50000000E+00  1.50000000E+00  8.00000000E-01  8.00000000E-01  1.50000000E+00
  1.50000000E+00  8.00000000E-01  8.00000000E-01  1.50000000E+00  1.50000000E+00
  8.00000000E-01  8.00000000E-01  1.50000000E+00  1.50000000E+00  8.00000000E-01
  8.00000000E-01  1.50000000E+00  1.50000000E+00  8.00000000E-01  8.00000000E-01
  1.50000000E+00  1.50000000E+00  8.00000000E-01  8.00000000E-01  1.50000000E+00
  1.50000000E+00  8.00000000E-01  8.00000000E-01  1.50000000E+00  1.50000000E+00
  8.00000000E-01  8.00000000E-01  1.50000000E+00  1.50000000E+00  8.00000000E-01
  8.00000000E-01  1.50000000E+00  1.50000000E+00  8.00000000E-01  8.00000000E-01
  1.50000000E+00  1.50000000E+00  8.00000000E-01  8.00000000E-01  1.50000000E+00
  1.50000000E+00  8.00000000E-01  8.00000000E-01  1.50000000E+00  1.50000000E+00
  8.00000000E-01  8.00000000E-01  1.50000000E+00  1.50000000E+00  8.00000000E-01
  8.00000000E-01  1.50000000E+00  1.50000000E+00  8.00000000E-01  8.00000000E-01
  1.50000000E+00  1.50000000E+00  8.00000000E-01  8.00000000E-01  1.50000000E+00
  1.50000000E+00  8.00000000E-01  8.00000000E-01  1.50000000E+00  1.50000000E+00
  8.00000000E-01  8.00000000E-01  1.50000000E+00  1.50000000E+00  8.00000000E-01
  8.00000000E-01  1.50000000E+00  1.50000000E+00  8.00000000E-01  8.00000000E-01
  1.50000000E+00  1.50000000E+00  8.00000000E-01  8.00000000E-01  1.50000000E+00
  1.50000000E+00  8.00000000E-01  8.00000000E-01  1.50000000E+00  1.50000000E+00
  8.00000000E-01  8.00000000E-01  1.50000000E+00  1.50000000E+00  8.00000000E-01
  8.00000000E-01  1.50000000E+00  1.50000000E+00  8.00000000E-01  8.00000000E-01
  1.50000000E+00  1.50000000E+00  8.00000000E-01  8.00000000E-01  1.50000000E+00
  1.50000000E+00  8.00000000E-01  8.00000000E-01  1.50000000E+00  1.50000000E+00
  8.00000000E-01  8.00000000E-01  1.50000000E+00  1.50000000E+00  8.00000000E-01
  8.00000000E-01  1.50000000E+00  1.50000000E+00  8.00000000E-01  8.00000000E-01
  1.50000000E+00  1.50000000E+00  8.00000000E-01  8.00000000E-01  1.50000000E+00
  1.50000000E+00  8.00000000E-01  8.00000000E-01  1.50000000E+00  1.50000000E+00
  8.00000000E-01  8.00000000E-01  1.50000000E+00  1.50000000E+00  8.00000000E-01
  8.00000000E-01  1.50000000E+00  1.50000000E+00  8.00000000E-01  8.00000000E-01
  1.50000000E+00  1.50000000E+00  8.00000000E-01  8.00000000E-01  1.50000000E+00
  1.50000000E+00  8.00000000E-01  8.00000000E-01  1.50000000E+00  1.50000000E+00
  8.00000000E-01  8.00000000E-01  1.50000000E+00  1.50000000E+00  8.00000000E-01
  8.00000000E-01  1.50000000E+00  1.50000000E+00  8.00000000E-01  8.00000000E-01
  1.50000000E+00  1.50000000E+00  8.00000000E-01  8.00000000E-01  1.50000000E+00
  1.50000000E+00  8.00000000E-01  8.00000000E-01  1.50000000E+00  1.50000000E+00
  8.00000000E-01  8.00000000E-01  1.50000000E+00  1.50000000E+00  8.00000000E-01
  8.00000000E-01  1.50000000E+00  1.50000000E+00  8.00000000E-01  8.00000000E-01
  1.50000000E+00  1.50000000E+00  8.00000000E-01  8.00000000E-01  1.50000000E+00
  1.50000000E+00  8.00000000E-01  8.00000000E-01  1.50000000E+00  1.50000000E+00
  8.00000000E-01  8.00000000E-01  1.50000000E+00  1.50000000E+00  8.00000000E-01
  8.00000000E-01  1.50000000E+00  1.50000000E+00  8.00000000E-01  8.00000000E-01
  1.50000000E+00  1.50000000E+00  8.00000000E-01  8.00000000E-01  1.50000000E+00
  1.50000000E+00  8.00000000E-01  8.00000000E-01  1.50000000E+00  1.50000000E+00
  8.00000000E-01  8.00000000E-01  1.50000000E+00  1.50000000E+00  8.00000000E-01
  8.00000000E-01  1.50000000E+00  1.50000000E+00  8.00000000E-01  8.00000000E-01
  1.50000000E+00  1.50000000E+00  8.00000000E-01  8.00000000E-01  1.50000000E+00
  1.50000000E+00  8.00000000E-01  8.00000000E-01  1.50000000E+00  1.50000000E+00
  8.00000000E-01  8.00000000E-01  1.50000000E+00  1.50000000E+00  8.00000000E-01
  8.00000000E-01  1.50000000E+00  1.50000000E+00  8.00000000E-01  8.00000000E-01
  1.50000000E+00  1.50000000E+00  8.00000000E-01  8.00000000E-01  1.50000000E+00
  1.50000000E+00  8.00000000E-01  8.00000000E-01  1.50000000E+00  1.50000000E+00
  8.00000000E-01  8.00000000E-01  1.50000000E+00  1.50000000E+00  8.00000000E-01
  8.00000000E-01  1.50000000E+00  1.50000000E+00  8.00000000E-01  8.00000000E-01
  1.50000000E+00  1.50000000E+00  8.00000000E-01  8.00000000E-01  1.50000000E+00
  1.50000000E+00  8.00000000E-01  8.00000000E-01  1.50000000E+00  1.50000000E+00
  8.00000000E-01  8.00000000E-01  1.50000000E+00  1.50000000E+00  8.00000000E-01
  8.00000000E-01  1.50000000E+00  1.50000000E+00  8.00000000E-01  8.00000000E-01
  1.50000000E+00  1.50000000E+00  8.00000000E-01  8.00000000E-01  1.50000000E+00
  1.50000000E+00  8.00000000E-01  8.00000000E-01  1.50000000E+00  1.50000000E+00
  8.00000000E-01  8.00000000E-01  1.50000000E+00  1.50000000E+00  8.00000000E-01
  8.00000000E-01  1.50000000E+00  1.50000000E+00  8.00000000E-01  8.00000000E-01
  1.50000000E+00  1.50000000E+00  8.00000000E-01  8.00000000E-01  1.50000000E+00
  1.50000000E+00  8.00000000E-01  8.00000000E-01  1.50000000E+00  1.50000000E+00
  8.00000000E-01  8.00000000E-01  1.50000000E+00  1.50000000E+00  8.00000000E-01
  8.00000000E-01  1.50000000E+00  1.50000000E+00  8.00000000E-01  8.00000000E-01
  1.50000000E+00  1.50000000E+00  8.00000000E-01  8.00000000E-01  1.50000000E+00
  1.50000000E+00  8.00000000E-01  8.00000000E-01  1.50000000E+00  1.50000000E+00
  8.00000000E-01  8.00000000E-01  1.50000000E+00  1.50000000E+00  8.00000000E-01
  8.00000000E-01  1.50000000E+00  1.50000000E+00  8.00000000E-01  8.00000000E-01
  1.50000000E+00  1.50000000E+00  8.00000000E-01  8.00000000E-01  1.50000000E+00
  1.50000000E+00  8.00000000E-01  8.00000000E-01  1.50000000E+00  1.50000000E+00
  8.00000000E-01  8.00000000E-01  1.50000000E+00  1.50000000E+00  8.00000000E-01
  8.00000000E-01  1.50000000E+00  1.50000000E+00  8.00000000E-01  8.00000000E-01
  1.50000000E+00  1.50000000E+00  8.00000000E-01  8.00000000E-01  1.50000000E+00
  1.50000000E+00  8.00000000E-01  8.00000000E-01  1.50000000E+00  1.50000000E+00
  8.00000000E-01  8.00000000E-01  1.50000000E+00  1.50000000E+00  8.00000000E-01
  8.00000000E-01  1.50000000E+00  1.50000000E+00  8.00000000E-01  8.00000000E-01
  1.50000000E+00  1.50000000E+00  8.00000000E-01  8.00000000E-01  1.50000000E+00
  1.50000000E+00  8.00000000E-01  8.00000000E-01  1.50000000E+00  1.50000000E+00
  8.00000000E-01  8.00000000E-01  1.50000000E+00  1.50000000E+00  8.00000000E-01
  8.00000000E-01  1.50000000E+00  1.50000000E+00  8.00000000E-01  8.00000000E-01
  1.50000000E+00  1.50000000E+00  8.00000000E-01  8.00000000E-01  1.50000000E+00
  1.50000000E+00  8.00000000E-01  8.00000000E-01  1.50000000E+00  1.50000000E+00
  8.00000000E-01  8.00000000E-01  1.50000000E+00  1.50000000E+00  8.00000000E-01
  8.00000000E-01  1.50000000E+00  1.50000000E+00  8.00000000E-01  8.00000000E-01
  1.50000000E+00  1.50000000E+00  8.00000000E-01  8.00000000E-01  1.50000000E+00
  1.50000000E+00  8.00000000E-01  8.00000000E-01  1.50000000E+00  1.50000000E+00
  8.00000000E-01  8.00000000E-01  1.50000000E+00  1.50000000E+00  8.00000000E-01
  8.00000000E-01  1.50000000E+00  1.50000000E+00  8.00000000E-01  8.00000000E-01
  1.50000000E+00  1.50000000E+00  8.00000000E-01  8.00000000E-01  1.50000000E+00
  1.50000000E+00  8.00000000E-01  8.00000000E-01  1.50000000E+00  1.50000000E+00
  8.00000000E-01  8.00000000E-01  1.50000000E+00  1.50000000E+00  8.00000000E-01
  8.00000000E-01  1.50000000E+00  1.50000000E+00  8.00000000E-01  8.00000000E-01
  1.50000000E+00  1.50000000E+00  8.00000000E-01  8.00000000E-01  1.50000000E+00
  1.50000000E+00  8.00000000E-01  8.00000000E-01  1.50000000E+00  1.50000000E+00
  8.00000000E-01  8.00000000E-01  1.50000000E+00  1.50000000E+00  8.00000000E-01
  8.00000000E-01  1.50000000E+00  1.50000000E+00  8.00000000E-01  8.00000000E-01
  1.50000000E+00  1.50000000E+00  8.00000000E-01  8.00000000E-01  1.50000000E+00
  1.50000000E+00  8.00000000E-01  8.00000000E-01  1.50000000E+00  1.50000000E+00
  8.00000000E-01  8.00000000E-01  1.50000000E+00  1.50000000E+00  8.00000000E-01
  8.00000000E-01  1.50000000E+00  1.50000000E+00  8.00000000E-01  8.00000000E-01
  1.50000000E+00  1.50000000E+00  8.00000000E-01  8.00000000E-01  1.50000000E+00
  1.50000000E+00  8.00000000E-01  8.00000000E-01  1.50000000E+00  1.50000000E+00
  8.00000000E-01  8.00000000E-01  1.50000000E+00  1.50000000E+00  8.00000000E-01
  8.00000000E-01  1.50000000E+00  1.50000000E+00  8.00000000E-01  8.00000000E-01
  1.50000000E+00  1.50000000E+00  8.00000000E-01  8.00000000E-01  1.50000000E+00
  1.50000000E+00  8.00000000E-01  8.00000000E-01  1.50000000E+00  1.50000000E+00
  8.00000000E-01  8.00000000E-01  1.50000000E+00  1.50000000E+00  8.00000000E-01
  8.00000000E-01  1.50000000E+00  1.50000000E+00  8.00000000E-01  8.00000000E-01
  1.50000000E+00  1.50000000E+00  8.00000000E-01  8.00000000E-01  1.50000000E+00
  1.50000000E+00  8.00000000E-01  8.00000000E-01  1.50000000E+00  1.50000000E+00
  8.00000000E-01  8.00000000E-01  1.50000000E+00  1.50000000E+00  8.00000000E-01
  8.00000000E-01  1.50000000E+00  1.50000000E+00  8.00000000E-01  8.00000000E-01
  1.50000000E+00  1.50000000E+00  8.00000000E-01  8.00000000E-01  1.50000000E+00
  1.50000000E+00  8.00000000E-01  8.00000000E-01  1.50000000E+00  1.50000000E+00
  8.00000000E-01  8.00000000E-01  1.50000000E+00  1.50000000E+00  8.00000000E-01
  8.00000000E-01  1.50000000E+00  1.50000000E+00  8.00000000E-01  8.00000000E-01
  1.50000000E+00  1.50000000E+00  8.00000000E-01  8.00000000E-01  1.50000000E+00
  1.50000000E+00  8.00000000E-01  8.00000000E-01  1.50000000E+00  1.50000000E+00
  8.00000000E-01  8.00000000E-01  1.50000000E+00  1.50000000E+00  8.00000000E-01
  8.00000000E-01  1.50000000E+00  1.50000000E+00  8.00000000E-01  8.00000000E-01
  1.50000000E+00  1.50000000E+00  8.00000000E-01  8.00000000E-01  1.50000000E+00
  1.50000000E+00  8.00000000E-01  8.00000000E-01  1.50000000E+00  1.50000000E+00
  8.00000000E-01  8.00000000E-01  1.50000000E+00  1.50000000E+00  8.00000000E-01
  8.00000000E-01  1.50000000E+00  1.50000000E+00  8.00000000E-01  8.00000000E-01
  1.50000000E+00  1.50000000E+00  8.00000000E-01  8.00000000E-01  1.50000000E+00
  1.50000000E+00  8.00000000E-01  8.00000000E-01  1.50000000E+00  1.50000000E+00
  8.00000000E-01  8.00000000E-01  1.50000000E+00  1.50000000E+00  8.00000000E-01
  8.00000000E-01  1.50000000E+00  1.50000000E+00  8.00000000E-01  8.00000000E-01
  1.50000000E+00  1.50000000E+00  8.00000000E-01  8.00000000E-01  1.50000000E+00
  1.50000000E+00  8.00000000E-01  8.00000000E-01  1.50000000E+00  1.50000000E+00
  8.00000000E-01  8.00000000E-01  1.50000000E+00  1.50000000E+00  8.00000000E-01
  8.00000000E-01  1.50000000E+00  1.50000000E+00  8.00000000E-01  8.00000000E-01
  1.50000000E+00  1.50000000E+00  8.00000000E-01  8.00000000E-01  1.50000000E+00
  1.50000000E+00  8.00000000E-01  8.00000000E-01  1.50000000E+00  1.50000000E+00
  8.00000000E-01  8.00000000E-01  1.50000000E+00  1.50000000E+00  8.00000000E-01
  8.00000000E-01  1.50000000E+00  1.50000000E+00  8.00000000E-01  8.00000000E-01
  1.50000000E+00  1.50000000E+00  8.00000000E-01  8.00000000E-01  1.50000000E+00
  1.50000000E+00  8.00000000E-01  8.00000000E-01  1.50000000E+00  1.50000000E+00
  8.00000000E-01  8.00000000E-01  1.50000000E+00  1.50000000E+00  8.00000000E-01
  8.00000000E-01  1.50000000E+00  1.50000000E+00  8.00000000E-01  8.00000000E-01
  1.50000000E+00  1.50000000E+00  8.00000000E-01  8.00000000E-01  1.50000000E+00
  1.50000000E+00  8.00000000E-01  8.00000000E-01  1.50000000E+00  1.50000000E+00
  8.00000000E-01  8.00000000E-01  1.50000000E+00  1.50000000E+00  8.00000000E-01
  8.00000000E-01  1.50000000E+00  1.50000000E+00  8.00000000E-01  8.00000000E-01
  1.50000000E+00  1.50000000E+00  8.00000000E-01  8.00000000E-01  1.50000000E+00
  1.50000000E+00  8.00000000E-01  8.00000000E-01  1.50000000E+00  1.50000000E+00
  8.00000000E-01  8.00000000E-01  1.50000000E+00  1.50000000E+00  8.00000000E-01
  8.00000000E-01  1.50000000E+00  1.50000000E+00  8.00000000E-01  8.00000000E-01
  1.50000000E+00  1.50000000E+00  8.00000000E-01  8.00000000E-01  1.50000000E+00
  1.50000000E+00  8.00000000E-01  8.00000000E-01  1.50000000E+00  1.50000000E+00
  8.00000000E-01  8.00000000E-01  1.50000000E+00  1.50000000E+00  8.00000000E-01
  8.00000000E-01  1.50000000E+00  1.50000000E+00  8.00000000E-01  8.00000000E-01
  1.50000000E+00  1.50000000E+00  8.00000000E-01  8.00000000E-01  1.50000000E+00
  1.50000000E+00  8.00000000E-01  8.00000000E-01  1.50000000E+00  1.50000000E+00
  8.00000000E-01  8.00000000E-01  1.50000000E+00  1.50000000E+00  8.00000000E-01
  8.00000000E-01  1.50000000E+00  1.50000000E+00  8.00000000E-01  8.00000000E-01
  1.50000000E+00  1.50000000E+00  8.00000000E-01  8.00000000E-01  1.50000000E+00
  1.50000000E+00  8.00000000E-01  8.00000000E-01  1.50000000E+00  1.50000000E+00
  8.00000000E-01  8.00000000E-01  1.50000000E+00  1.50000000E+00  8.00000000E-01
  8.00000000E-01  1.50000000E+00  1.50000000E+00  8.00000000E-01  8.00000000E-01
  1.50000000E+00  1.50000000E+00  8.00000000E-01  8.00000000E-01  1.50000000E+00
  1.50000000E+00  8.00000000E-01  8.00000000E-01  1.50000000E+00  1.50000000E+00
  8.00000000E-01  8.00000000E-01  1.50000000E+00  1.50000000E+00  8.00000000E-01
  8.00000000E-01  1.50000000E+00  1.50000000E+00  8.00000000E-01  8.00000000E-01
  1.50000000E+00  1.50000000E+00  8.00000000E-01  8.00000000E-01  1.50000000E+00
  1.50000000E+00  8.00000000E-01  8.00000000E-01  1.50000000E+00  1.50000000E+00
  8.00000000E-01  8.00000000E-01  1.50000000E+00  1.50000000E+00  8.00000000E-01
  8.00000000E-01  1.50000000E+00  1.50000000E+00  8.00000000E-01  8.00000000E-01
  1.50000000E+00  1.50000000E+00  8.00000000E-01  8.00000000E-01  1.50000000E+00
  1.50000000E+00  8.00000000E-01  8.00000000E-01  1.50000000E+00  1.50000000E+00
  8.00000000E-01  8.00000000E-01  1.50000000E+00  1.50000000E+00  8.00000000E-01
  8.00000000E-01  1.50000000E+00  1.50000000E+00  8.00000000E-01  8.00000000E-01
  1.50000000E+00  1.50000000E+00  8.00000000E-01  8.00000000E-01  1.50000000E+00
  1.50000000E+00  8.00000000E-01  8.00000000E-01  1.50000000E+00  1.50000000E+00
  8.00000000E-01  8.00000000E-01  1.50000000E+00  1.50000000E+00  8.00000000E-01
  8.00000000E-01  1.50000000E+00  1.50000000E+00  8.00000000E-01  8.00000000E-01
  1.50000000E+00  1.50000000E+00  8.00000000E-01  8.00000000E-01  1.50000000E+00
  1.50000000E+00  8.00000000E-01  8.00000000E-01  1.50000000E+00  1.50000000E+00
  8.00000000E-01  8.00000000E-01  1.50000000E+00  1.50000000E+00  8.00000000E-01
  8.00000000E-01  1.50000000E+00  1.50000000E+00  8.00000000E-01  8.00000000E-01
  1.50000000E+00  1.50000000E+00  8.00000000E-01  8.00000000E-01  1.50000000E+00
  1.50000000E+00  8.00000000E-01  8.00000000E-01  1.50000000E+00  1.50000000E+00
  8.00000000E-01  8.00000000E-01  1.50000000E+00  1.50000000E+00  8.00000000E-01
  8.00000000E-01  1.50000000E+00  1.50000000E+00  8.00000000E-01  8.00000000E-01
  1.50000000E+00  1.50000000E+00  8.00000000E-01  8.00000000E-01  1.50000000E+00
  1.50000000E+00  8.00000000E-01  8.00000000E-01  1.50000000E+00  1.50000000E+00
  8.00000000E-01  8.00000000E-01  1.50000000E+00  1.50000000E+00  8.00000000E-01
  8.00000000E-01  1.50000000E+00  1.50000000E+00  8.00000000E-01  8.00000000E-01
  1.50000000E+00  1.50000000E+00  8.00000000E-01  8.00000000E-01  1.50000000E+00
  1.50000000E+00  8.00000000E-01  8.00000000E-01  1.50000000E+00  1.50000000E+00
  8.00000000E-01  8.00000000E-01  1.50000000E+00  1.50000000E+00  8.00000000E-01
  8.00000000E-01  1.50000000E+00  1.50000000E+00  8.00000000E-01  8.00000000E-01
  1.50000000E+00  1.50000000E+00  8.00000000E-01  8.00000000E-01  1.50000000E+00
  1.50000000E+00  8.00000000E-01  8.00000000E-01  1.50000000E+00  1.50000000E+00
  8.00000000E-01  8.00000000E-01  1.50000000E+00  1.50000000E+00  8.00000000E-01
  8.00000000E-01  1.50000000E+00  1.50000000E+00  8.00000000E-01  8.00000000E-01
  1.50000000E+00  1.50000000E+00  8.00000000E-01  8.00000000E-01  1.50000000E+00
  1.50000000E+00  8.00000000E-01  8.00000000E-01  1.50000000E+00  1.50000000E+00
  8.00000000E-01  8.00000000E-01  1.50000000E+00  1.50000000E+00  8.00000000E-01
  8.00000000E-01  1.50000000E+00  1.50000000E+00  8.00000000E-01  8.00000000E-01
  1.50000000E+00  1.50000000E+00  8.00000000E-01  8.00000000E-01  1.50000000E+00
  1.50000000E+00  8.00000000E-01  8.00000000E-01  1.50000000E+00  1.50000000E+00
  8.00000000E-01  8.00000000E-01  1.50000000E+00  1.50000000E+00  8.00000000E-01
  8.00000000E-01  1.50000000E+00  1.50000000E+00  8.00000000E-01  8.00000000E-01
  1.50000000E+00  1.50000000E+00  8.00000000E-01  8.00000000E-01  1.50000000E+00
  1.50000000E+00  8.00000000E-01  8.00000000E-01  1.50000000E+00  1.50000000E+00
  8.00000000E-01  8.00000000E-01  1.50000000E+00  1.50000000E+00  8.00000000E-01
  8.00000000E-01  1.50000000E+00  1.50000000E+00  8.00000000E-01  8.00000000E-01
  1.50000000E+00  1.50000000E+00  8.00000000E-01  8.00000000E-01  1.50000000E+00
  1.50000000E+00  8.00000000E-01  8.00000000E-01  1.50000000E+00  1.50000000E+00
  8.00000000E-01  8.00000000E-01  1.50000000E+00  1.50000000E+00  8.00000000E-01
  8.00000000E-01  1.50000000E+00  1.50000000E+00  8.00000000E-01  8.00000000E-01
  1.50000000E+00  1.50000000E+00  8.00000000E-01  8.00000000E-01  1.50000000E+00
  1.50000000E+00  8.00000000E-01  8.00000000E-01  1.50000000E+00  1.50000000E+00
  8.00000000E-01  8.00000000E-01  1.50000000E+00  1.50000000E+00  8.00000000E-01
  8.00000000E-01  1.50000000E+00  1.50000000E+00  8.00000000E-01  8.00000000E-01
  1.50000000E+00  1.50000000E+00  8.00000000E-01  8.00000000E-01  1.50000000E+00
  1.50000000E+00  8.00000000E-01  8.00000000E-01  1.50000000E+00  1.50000000E+00
  8.00000000E-01  8.00000000E-01  1.50000000E+00  1.50000000E+00  8.00000000E-01
  8.00000000E-01  1.50000000E+00  1.50000000E+00  8.00000000E-01  8.00000000E-01
  1.50000000E+00  1.50000000E+00  8.00000000E-01  8.00000000E-01  1.50000000E+00
  1.50000000E+00  8.00000000E-01  8.00000000E-01  1.50000000E+00  1.50000000E+00
  8.00000000E-01  8.00000000E-01  1.50000000E+00  1.50000000E+00  8.00000000E-01
  8.00000000E-01  1.50000000E+00  1.50000000E+00  8.00000000E-01  8.00000000E-01
  1.50000000E+00  1.50000000E+00  8.00000000E-01  8.00000000E-01  1.50000000E+00
  1.50000000E+00  8.00000000E-01  8.00000000E-01  1.50000000E+00  1.50000000E+00
  8.00000000E-01  8.00000000E-01  1.50000000E+00  1.50000000E+00  8.00000000E-01
  8.00000000E-01  1.50000000E+00  1.50000000E+00  8.00000000E-01  8.00000000E-01
  1.50000000E+00  1.50000000E+00  8.00000000E-01  8.00000000E-01  1.50000000E+00
  1.50000000E+00  8.00000000E-01  8.00000000E-01  1.50000000E+00  1.50000000E+00
  8.00000000E-01  8.00000000E-01  1.50000000E+00  1.50000000E+00  8.00000000E-01
  8.00000000E-01  1.50000000E+00  1.50000000E+00  8.00000000E-01  8.00000000E-01
  1.50000000E+00  1.50000000E+00  8.00000000E-01  8.00000000E-01  1.50000000E+00
  1.50000000E+00  8.00000000E-01  8.00000000E-01  1.50000000E+00  1.50000000E+00
  8.00000000E-01  8.00000000E-01  1.50000000E+00  1.50000000E+00  8.00000000E-01
  8.00000000E-01  1.50000000E+00  1.50000000E+00  8.00000000E-01  8.00000000E-01
  1.50000000E+00  1.50000000E+00  8.00000000E-01  8.00000000E-01  1.50000000E+00
  1.50000000E+00  8.00000000E-01  8.00000000E-01  1.50000000E+00  1.50000000E+00
  8.00000000E-01  8.00000000E-01  1.50000000E+00  1.50000000E+00  8.00000000E-01
  8.00000000E-01  1.50000000E+00  1.50000000E+00  8.00000000E-01  8.00000000E-01
  1.50000000E+00  1.50000000E+00  8.00000000E-01  8.00000000E-01  1.50000000E+00
  1.50000000E+00  8.00000000E-01  8.00000000E-01  1.50000000E+00  1.50000000E+00
  8.00000000E-01  8.00000000E-01  1.50000000E+00  1.50000000E+00  8.00000000E-01
  8.00000000E-01  1.50000000E+00  1.50000000E+00  8.00000000E-01  8.00000000E-01
  1.50000000E+00  1.50000000E+00  8.00000000E-01  8.00000000E-01  1.50000000E+00
  1.50000000E+00  8.00000000E-01  8.00000000E-01  1.50000000E+00  1.50000000E+00
  8.00000000E-01  8.00000000E-01  1.50000000E+00  1.50000000E+00  8.00000000E-01
  8.00000000E-01  1.50000000E+00  1.50000000E+00  8.00000000E-01  8.00000000E-01
  1.50000000E+00  1.50000000E+00  8.00000000E-01  8.00000000E-01  1.50000000E+00
  1.50000000E+00  8.00000000E-01  8.00000000E-01  1.50000000E+00  1.50000000E+00
  8.00000000E-01  8.00000000E-01  1.50000000E+00  1.50000000E+00  8.00000000E-01
  8.00000000E-01  1.50000000E+00  1.50000000E+00  8.00000000E-01  8.00000000E-01
  1.50000000E+00  1.50000000E+00  8.00000000E-01  8.00000000E-01  1.50000000E+00
  1.50000000E+00  8.00000000E-01  8.00000000E-01  1.50000000E+00  1.50000000E+00
  8.00000000E-01  8.00000000E-01  1.50000000E+00  1.50000000E+00  8.00000000E-01
  8.00000000E-01  1.50000000E+00  1.50000000E+00  8.00000000E-01  8.00000000E-01
  1.50000000E+00  1.50000000E+00  8.00000000E-01  8.00000000E-01  1.50000000E+00
  1.50000000E+00  8.00000000E-01  8.00000000E-01  1.50000000E+00  1.50000000E+00
  8.00000000E-01  8.00000000E-01  1.50000000E+00  1.50000000E+00  8.00000000E-01
  8.00000000E-01  1.50000000E+00  1.50000000E+00  8.00000000E-01  8.00000000E-01
  1.50000000E+00  1.50000000E+00  8.00000000E-01  8.00000000E-01  1.50000000E+00
  1.50000000E+00  8.00000000E-01  8.00000000E-01  1.50000000E+00  1.50000000E+00
  8.00000000E-01  8.00000000E-01  1.50000000E+00  1.50000000E+00  8.00000000E-01
  8.00000000E-01  1.50000000E+00  1.50000000E+00  8.00000000E-01  8.00000000E-01
  1.50000000E+00  1.50000000E+00  8.00000000E-01  8.00000000E-01  1.50000000E+00
  1.50000000E+00  8.00000000E-01  8.00000000E-01  1.50000000E+00  1.50000000E+00
  8.00000000E-01  8.00000000E-01  1.50000000E+00  1.50000000E+00  8.00000000E-01
  8.00000000E-01  1.50000000E+00  1.50000000E+00  8.00000000E-01  8.00000000E-01
  1.50000000E+00  1.50000000E+00  8.00000000E-01  8.00000000E-01  1.50000000E+00
  1.50000000E+00  8.00000000E-01  8.00000000E-01  1.50000000E+00  1.50000000E+00
  8.00000000E-01  8.00000000E-01  1.50000000E+00  1.50000000E+00  8.00000000E-01
  8.00000000E-01  1.50000000E+00  1.50000000E+00  8.00000000E-01  8.00000000E-01
  1.50000000E+00  1.50000000E+00  8.00000000E-01  8.00000000E-01  1.50000000E+00
  1.50000000E+00  8.00000000E-01  8.00000000E-01  1.50000000E+00  1.50000000E+00
  8.00000000E-01  8.00000000E-01  1.50000000E+00  1.50000000E+00  8.00000000E-01
  8.00000000E-01  1.50000000E+00  1.50000000E+00  8.00000000E-01  8.00000000E-01
  1.50000000E+00  1.50000000E+00  8.00000000E-01  8.00000000E-01  1.50000000E+00
  1.50000000E+00  8.00000000E-01  8.00000000E-01  1.50000000E+00  1.50000000E+00
  8.00000000E-01  8.00000000E-01  1.50000000E+00  1.50000000E+00  8.00000000E-01
  8.00000000E-01  1.50000000E+00  1.50000000E+00  8.00000000E-01  8.00000000E-01
  1.50000000E+00  1.50000000E+00  8.00000000E-01  8.00000000E-01  1.50000000E+00
  1.50000000E+00  8.00000000E-01  8.00000000E-01  1.50000000E+00  1.50000000E+00
  8.00000000E-01  8.00000000E-01  1.50000000E+00  1.50000000E+00  8.00000000E-01
  8.00000000E-01  1.50000000E+00  1.50000000E+00  8.00000000E-01  8.00000000E-01
  1.50000000E+00  1.50000000E+00  8.00000000E-01  8.00000000E-01  1.50000000E+00
  1.50000000E+00  8.00000000E-01  8.00000000E-01  1.50000000E+00  1.50000000E+00
  8.00000000E-01  8.00000000E-01  1.50000000E+00  1.50000000E+00  8.00000000E-01
  8.00000000E-01  1.50000000E+00  1.50000000E+00  8.00000000E-01  8.00000000E-01
  1.50000000E+00  1.50000000E+00  8.00000000E-01  8.00000000E-01  1.50000000E+00
  1.50000000E+00  8.00000000E-01  8.00000000E-01  1.50000000E+00  1.50000000E+00
  8.00000000E-01  8.00000000E-01  1.50000000E+00  1.50000000E+00  8.00000000E-01
  8.00000000E-01  1.50000000E+00  1.50000000E+00  8.00000000E-01  8.00000000E-01
  1.50000000E+00  1.50000000E+00  8.00000000E-01  8.00000000E-01  1.50000000E+00
  1.50000000E+00  8.00000000E-01  8.00000000E-01  1.50000000E+00  1.50000000E+00
  8.00000000E-01  8.00000000E-01  1.50000000E+00  1.50000000E+00  8.00000000E-01
  8.00000000E-01  1.50000000E+00  1.50000000E+00  8.00000000E-01  8.00000000E-01
  1.50000000E+00  1.50000000E+00  8.00000000E-01  8.00000000E-01  1.50000000E+00
  1.50000000E+00  8.00000000E-01  8.00000000E-01  1.50000000E+00  1.50000000E+00
  8.00000000E-01  8.00000000E-01  1.50000000E+00  1.50000000E+00  8.00000000E-01
  8.00000000E-01  1.50000000E+00  1.50000000E+00  8.00000000E-01  8.00000000E-01
  1.50000000E+00  1.50000000E+00  8.00000000E-01  8.00000000E-01  1.50000000E+00
  1.50000000E+00  8.00000000E-01  8.00000000E-01  1.50000000E+00  1.50000000E+00
  8.00000000E-01  8.00000000E-01  1.50000000E+00  1.50000000E+00  8.00000000E-01
  8.00000000E-01  1.50000000E+00  1.50000000E+00  8.00000000E-01  8.00000000E-01
  1.50000000E+00  1.50000000E+00  8.00000000E-01  8.00000000E-01  1.50000000E+00
  1.50000000E+00  8.00000000E-01  8.00000000E-01  1.50000000E+00  1.50000000E+00
  8.00000000E-01  8.00000000E-01  1.50000000E+00  1.50000000E+00  8.00000000E-01
  8.00000000E-01  1.50000000E+00  1.50000000E+00  8.00000000E-01  8.00000000E-01
  1.50000000E+00  1.50000000E+00  8.00000000E-01  8.00000000E-01  1.50000000E+00
  1.50000000E+00  8.00000000E-01  8.00000000E-01  1.50000000E+00  1.50000000E+00
  8.00000000E-01  8.00000000E-01  1.50000000E+00  1.50000000E+00  8.00000000E-01
  8.00000000E-01  1.50000000E+00  1.50000000E+00  8.00000000E-01  8.00000000E-01
  1.50000000E+00  1.50000000E+00  8.00000000E-01  8.00000000E-01  1.50000000E+00
  1.50000000E+00  8.00000000E-01  8.00000000E-01  1.50000000E+00  1.50000000E+00
  8.00000000E-01  8.00000000E-01  1.50000000E+00  1.50000000E+00  8.00000000E-01
  8.00000000E-01  1.50000000E+00  1.50000000E+00  8.00000000E-01  8.00000000E-01
  1.50000000E+00  1.50000000E+00  8.00000000E-01  8.00000000E-01  1.50000000E+00
  1.50000000E+00  8.00000000E-01  8.00000000E-01  1.50000000E+00  1.50000000E+00
  8.00000000E-01  8.00000000E-01  1.50000000E+00  1.50000000E+00  8.00000000E-01
  8.00000000E-01  1.50000000E+00  1.50000000E+00  8.00000000E-01  8.00000000E-01
  1.50000000E+00  1.50000000E+00  8.00000000E-01  8.00000000E-01  1.50000000E+00
  1.50000000E+00  8.00000000E-01  8.00000000E-01  1.50000000E+00  1.50000000E+00
  8.00000000E-01  8.00000000E-01  1.50000000E+00  1.50000000E+00  8.00000000E-01
  8.00000000E-01  1.50000000E+00  1.50000000E+00  8.00000000E-01  8.00000000E-01
  1.50000000E+00  1.50000000E+00  8.00000000E-01  8.00000000E-01  1.50000000E+00
  1.50000000E+00  8.00000000E-01  8.00000000E-01  1.50000000E+00  1.50000000E+00
  8.00000000E-01  8.00000000E-01  1.50000000E+00  1.50000000E+00  8.00000000E-01
  8.00000000E-01  1.50000000E+00  1.50000000E+00  8.00000000E-01  8.00000000E-01
  1.50000000E+00  1.50000000E+00  8.00000000E-01  8.00000000E-01  1.50000000E+00
  1.50000000E+00  8.00000000E-01  8.00000000E-01  1.50000000E+00  1.50000000E+00
  8.00000000E-01  8.00000000E-01  1.50000000E+00  1.50000000E+00  8.00000000E-01
  8.00000000E-01  1.50000000E+00  1.50000000E+00  8.00000000E-01  8.00000000E-01
  1.50000000E+00  1.50000000E+00  8.00000000E-01  8.00000000E-01  1.50000000E+00
  1.50000000E+00  8.00000000E-01  8.00000000E-01  1.50000000E+00  1.50000000E+00
  8.00000000E-01  8.00000000E-01  1.50000000E+00  1.50000000E+00  8.00000000E-01
  8.00000000E-01  1.50000000E+00  1.50000000E+00  8.00000000E-01  8.00000000E-01
  1.50000000E+00  1.50000000E+00  8.00000000E-01  8.00000000E-01  1.50000000E+00
  1.50000000E+00  8.00000000E-01  8.00000000E-01  1.50000000E+00  1.50000000E+00
  8.00000000E-01  8.00000000E-01  1.50000000E+00  1.50000000E+00  8.00000000E-01
  8.00000000E-01  1.50000000E+00  1.50000000E+00  8.00000000E-01  8.00000000E-01
  1.50000000E+00  1.50000000E+00  8.00000000E-01  8.00000000E-01  1.50000000E+00
  1.50000000E+00  8.00000000E-01  8.00000000E-01  1.50000000E+00  1.50000000E+00
  8.00000000E-01  8.00000000E-01  1.50000000E+00  1.50000000E+00  8.00000000E-01
  8.00000000E-01  1.50000000E+00  1.50000000E+00  8.00000000E-01  8.00000000E-01
  1.50000000E+00  1.50000000E+00  8.00000000E-01  8.00000000E-01  1.50000000E+00
  1.50000000E+00  8.00000000E-01  8.00000000E-01  1.50000000E+00  1.50000000E+00
  8.00000000E-01  8.00000000E-01  1.50000000E+00  1.50000000E+00  8.00000000E-01
  8.00000000E-01  1.50000000E+00  1.50000000E+00  8.00000000E-01  8.00000000E-01
  1.50000000E+00  1.50000000E+00  8.00000000E-01  8.00000000E-01  1.50000000E+00
  1.50000000E+00  8.00000000E-01  8.00000000E-01  1.50000000E+00  1.50000000E+00
  8.00000000E-01  8.00000000E-01  1.50000000E+00  1.50000000E+00  8.00000000E-01
  8.00000000E-01  1.50000000E+00  1.50000000E+00  8.00000000E-01  8.00000000E-01
  1.50000000E+00  1.50000000E+00  8.00000000E-01  8.00000000E-01  1.50000000E+00
  1.50000000E+00  8.00000000E-01  8.00000000E-01  1.50000000E+00  1.50000000E+00
  8.00000000E-01  8.00000000E-01  1.50000000E+00  1.50000000E+00  8.00000000E-01
  8.00000000E-01  1.50000000E+00  1.50000000E+00  8.00000000E-01  8.00000000E-01
  1.50000000E+00  1.50000000E+00  8.00000000E-01  8.00000000E-01  1.50000000E+00
  1.50000000E+00  8.00000000E-01  8.00000000E-01  1.50000000E+00  1.50000000E+00
  8.00000000E-01  8.00000000E-01  1.50000000E+00  1.50000000E+00  8.00000000E-01
  8.00000000E-01  1.50000000E+00  1.50000000E+00  8.00000000E-01  8.00000000E-01
  1.50000000E+00  1.50000000E+00  8.00000000E-01  8.00000000E-01  1.50000000E+00
  1.50000000E+00  8.00000000E-01  8.00000000E-01  1.50000000E+00  1.50000000E+00
  8.00000000E-01  8.00000000E-01  1.50000000E+00  1.50000000E+00  8.00000000E-01
  8.00000000E-01  1.50000000E+00  1.50000000E+00  8.00000000E-01  8.00000000E-01
  1.50000000E+00  1.50000000E+00  8.00000000E-01  8.00000000E-01  1.50000000E+00
  1.50000000E+00  8.00000000E-01  8.00000000E-01  1.50000000E+00  1.50000000E+00
  8.00000000E-01  8.00000000E-01  1.50000000E+00  1.50000000E+00  8.00000000E-01
  8.00000000E-01  1.50000000E+00  1.50000000E+00  8.00000000E-01  8.00000000E-01
  1.50000000E+00  1.50000000E+00  8.00000000E-01  8.00000000E-01  1.50000000E+00
  1.50000000E+00  8.00000000E-01  8.00000000E-01  1.50000000E+00  1.50000000E+00
  8.00000000E-01  8.00000000E-01  1.50000000E+00  1.50000000E+00  8.00000000E-01
  8.00000000E-01  1.50000000E+00  1.50000000E+00  8.00000000E-01  8.00000000E-01
  1.50000000E+00  1.50000000E+00  8.00000000E-01  8.00000000E-01  1.50000000E+00
  1.50000000E+00  8.00000000E-01  8.00000000E-01  1.50000000E+00  1.50000000E+00
  8.00000000E-01  8.00000000E-01  1.50000000E+00  1.50000000E+00  8.00000000E-01
  8.00000000E-01  1.50000000E+00  1.50000000E+00  8.00000000E-01  8.00000000E-01
  1.50000000E+00  1.50000000E+00  8.00000000E-01  8.00000000E-01  1.50000000E+00
  1.50000000E+00  8.00000000E-01  8.00000000E-01  1.50000000E+00  1.50000000E+00
  8.00000000E-01  8.00000000E-01  1.50000000E+00  1.50000000E+00  8.00000000E-01
  8.00000000E-01  1.50000000E+00  1.50000000E+00  8.00000000E-01  8.00000000E-01
  1.50000000E+00  1.50000000E+00  8.00000000E-01  8.00000000E-01  1.50000000E+00
  1.50000000E+00  8.00000000E-01  8.00000000E-01  1.50000000E+00  1.50000000E+00
  8.00000000E-01  8.00000000E-01  1.50000000E+00  1.50000000E+00  8.00000000E-01
  8.00000000E-01  1.50000000E+00  1.50000000E+00  8.00000000E-01  8.00000000E-01
  1.50000000E+00  1.50000000E+00  8.00000000E-01  8.00000000E-01  1.50000000E+00
  1.50000000E+00  8.00000000E-01  8.00000000E-01  1.50000000E+00  1.50000000E+00
  8.00000000E-01  8.00000000E-01  1.50000000E+00  1.50000000E+00  8.00000000E-01
  8.00000000E-01  1.50000000E+00  1.50000000E+00  8.00000000E-01  8.00000000E-01
  1.50000000E+00  1.50000000E+00  8.00000000E-01  8.00000000E-01  1.50000000E+00
  1.50000000E+00  8.00000000E-01  8.00000000E-01  1.50000000E+00  1.50000000E+00
  8.00000000E-01  8.00000000E-01  1.50000000E+00  1.50000000E+00  8.00000000E-01
  8.00000000E-01  1.50000000E+00  1.50000000E+00  8.00000000E-01  8.00000000E-01
  1.50000000E+00  1.50000000E+00  8.00000000E-01  8.00000000E-01  1.50000000E+00
  1.50000000E+00  8.00000000E-01  8.00000000E-01  1.50000000E+00  1.50000000E+00
  8.00000000E-01  8.00000000E-01  1.50000000E+00  1.50000000E+00  8.00000000E-01
  8.00000000E-01  1.50000000E+00  1.50000000E+00  8.00000000E-01  8.00000000E-01
  1.50000000E+00  1.50000000E+00  8.00000000E-01  8.00000000E-01  1.50000000E+00
  1.50000000E+00  8.00000000E-01  8.00000000E-01  1.50000000E+00  1.50000000E+00
  8.00000000E-01  8.00000000E-01  1.50000000E+00  1.50000000E+00  8.00000000E-01
  8.00000000E-01  1.50000000E+00  1.50000000E+00  8.00000000E-01  8.00000000E-01
  1.50000000E+00  1.50000000E+00  8.00000000E-01  8.00000000E-01  1.50000000E+00
  1.50000000E+00  8.00000000E-01  8.00000000E-01  1.50000000E+00  1.50000000E+00
  8.00000000E-01  8.00000000E-01  1.50000000E+00  1.50000000E+00  8.00000000E-01
  8.00000000E-01  1.50000000E+00  1.50000000E+00  8.00000000E-01  8.00000000E-01
  1.50000000E+00  1.50000000E+00  8.00000000E-01  8.00000000E-01  1.50000000E+00
  1.50000000E+00  8.00000000E-01  8.00000000E-01  1.50000000E+00  1.50000000E+00
  8.00000000E-01  8.00000000E-01  1.50000000E+00  1.50000000E+00  8.00000000E-01
  8.00000000E-01  1.50000000E+00  1.50000000E+00  8.00000000E-01  8.00000000E-01
  1.50000000E+00  1.50000000E+00  8.00000000E-01  8.00000000E-01  1.50000000E+00
  1.50000000E+00  8.00000000E-01  8.00000000E-01  1.50000000E+00  1.50000000E+00
  8.00000000E-01  8.00000000E-01  1.50000000E+00  1.50000000E+00  8.00000000E-01
  8.00000000E-01  1.50000000E+00  1.50000000E+00  8.00000000E-01  8.00000000E-01
  1.50000000E+00  1.50000000E+00  8.00000000E-01  8.00000000E-01  1.50000000E+00
  1.50000000E+00  8.00000000E-01  8.00000000E-01  1.50000000E+00  1.50000000E+00
  8.00000000E-01  8.00000000E-01  1.50000000E+00  1.50000000E+00  8.00000000E-01
  8.00000000E-01  1.50000000E+00  1.50000000E+00  8.00000000E-01  8.00000000E-01
  1.50000000E+00  1.50000000E+00  8.00000000E-01  8.00000000E-01  1.50000000E+00
  1.50000000E+00  8.00000000E-01  8.00000000E-01  1.50000000E+00  1.50000000E+00
  8.00000000E-01  8.00000000E-01  1.50000000E+00  1.50000000E+00  8.00000000E-01
  8.00000000E-01  1.50000000E+00  1.50000000E+00  8.00000000E-01  8.00000000E-01
  1.50000000E+00  1.50000000E+00  8.00000000E-01  8.00000000E-01  1.50000000E+00
  1.50000000E+00  8.00000000E-01  8.00000000E-01  1.50000000E+00  1.50000000E+00
  8.00000000E-01  8.00000000E-01  1.50000000E+00  1.50000000E+00  8.00000000E-01
  8.00000000E-01  1.50000000E+00  1.50000000E+00  8.00000000E-01  8.00000000E-01
  1.50000000E+00  1.50000000E+00  8.00000000E-01  8.00000000E-01  1.50000000E+00
  1.50000000E+00  8.00000000E-01  8.00000000E-01  1.50000000E+00  1.50000000E+00
  8.00000000E-01  8.00000000E-01  1.50000000E+00  1.50000000E+00  8.00000000E-01
  8.00000000E-01  1.50000000E+00  1.50000000E+00  8.00000000E-01  8.00000000E-01
  1.50000000E+00  1.50000000E+00  8.00000000E-01  8.00000000E-01  1.50000000E+00
  1.50000000E+00  8.00000000E-01  8.00000000E-01  1.50000000E+00  1.50000000E+00
  8.00000000E-01  8.00000000E-01  1.50000000E+00  1.50000000E+00  8.00000000E-01
  8.00000000E-01  1.50000000E+00  1.50000000E+00  8.00000000E-01  8.00000000E-01
  1.50000000E+00  1.50000000E+00  8.00000000E-01  8.00000000E-01  1.50000000E+00
  1.50000000E+00  8.00000000E-01  8.00000000E-01  1.50000000E+00  1.50000000E+00
  8.00000000E-01  8.00000000E-01  1.50000000E+00  1.50000000E+00  8.00000000E-01
  8.00000000E-01  1.50000000E+00  1.50000000E+00  8.00000000E-01  8.00000000E-01
  1.50000000E+00  1.50000000E+00  8.00000000E-01  8.00000000E-01  1.50000000E+00
  1.50000000E+00  8.00000000E-01  8.00000000E-01  1.50000000E+00  1.50000000E+00
  8.00000000E-01  8.00000000E-01  1.50000000E+00  1.50000000E+00  8.00000000E-01
  8.00000000E-01  1.50000000E+00  1.50000000E+00  8.00000000E-01  8.00000000E-01
  1.50000000E+00  1.50000000E+00  8.00000000E-01  8.00000000E-01  1.50000000E+00
  1.50000000E+00  8.00000000E-01  8.00000000E-01  1.50000000E+00  1.50000000E+00
  8.00000000E-01  8.00000000E-01  1.50000000E+00  1.50000000E+00  8.00000000E-01
  8.00000000E-01  1.50000000E+00  1.50000000E+00  8.00000000E-01  8.00000000E-01
  1.50000000E+00  1.50000000E+00  8.00000000E-01  8.00000000E-01  1.50000000E+00
  1.50000000E+00  8.00000000E-01  8.00000000E-01  1.50000000E+00  1.50000000E+00
  8.00000000E-01  8.00000000E-01  1.50000000E+00  1.50000000E+00  8.00000000E-01
  8.00000000E-01  1.50000000E+00  1.50000000E+00  8.00000000E-01  8.00000000E-01
  1.50000000E+00  1.50000000E+00  8.00000000E-01  8.00000000E-01  1.50000000E+00
  1.50000000E+00  8.00000000E-01  8.00000000E-01  1.50000000E+00  1.50000000E+00
  8.00000000E-01  8.00000000E-01  1.50000000E+00  1.50000000E+00  8.00000000E-01
  8.00000000E-01  1.50000000E+00  1.50000000E+00  8.00000000E-01  8.00000000E-01
  1.50000000E+00  1.50000000E+00  8.00000000E-01  8.00000000E-01  1.50000000E+00
  1.50000000E+00  8.00000000E-01  8.00000000E-01  1.50000000E+00  1.50000000E+00
  8.00000000E-01  8.00000000E-01  1.50000000E+00  1.50000000E+00  8.00000000E-01
  8.00000000E-01  1.50000000E+00  1.50000000E+00  8.00000000E-01  8.00000000E-01
  1.50000000E+00  1.50000000E+00  8.00000000E-01  8.00000000E-01  1.50000000E+00
  1.50000000E+00  8.00000000E-01  8.00000000E-01  1.50000000E+00  1.50000000E+00
  8.00000000E-01  8.00000000E-01  1.50000000E+00  1.50000000E+00  8.00000000E-01
  8.00000000E-01  1.50000000E+00  1.50000000E+00  8.00000000E-01  8.00000000E-01
  1.50000000E+00  1.50000000E+00  8.00000000E-01  8.00000000E-01  1.50000000E+00
  1.50000000E+00  8.00000000E-01  8.00000000E-01  1.50000000E+00  1.50000000E+00
  8.00000000E-01  8.00000000E-01  1.50000000E+00  1.50000000E+00  8.00000000E-01
  8.00000000E-01  1.50000000E+00  1.50000000E+00  8.00000000E-01  8.00000000E-01
  1.50000000E+00  1.50000000E+00  8.00000000E-01  8.00000000E-01  1.50000000E+00
  1.50000000E+00  8.00000000E-01  8.00000000E-01  1.50000000E+00  1.50000000E+00
  8.00000000E-01  8.00000000E-01  1.50000000E+00  1.50000000E+00  8.00000000E-01
  8.00000000E-01  1.50000000E+00  1.50000000E+00  8.00000000E-01  8.00000000E-01
  1.50000000E+00  1.50000000E+00  8.00000000E-01  8.00000000E-01  1.50000000E+00
  1.50000000E+00  8.00000000E-01  8.00000000E-01  1.50000000E+00  1.50000000E+00
  8.00000000E-01  8.00000000E-01  1.50000000E+00  1.50000000E+00  8.00000000E-01
  8.00000000E-01  1.50000000E+00  1.50000000E+00  8.00000000E-01  8.00000000E-01
  1.50000000E+00  1.50000000E+00  8.00000000E-01  8.00000000E-01  1.50000000E+00
  1.50000000E+00  8.00000000E-01  8.00000000E-01  1.50000000E+00  1.50000000E+00
  8.00000000E-01  8.00000000E-01  1.50000000E+00  1.50000000E+00  8.00000000E-01
  8.00000000E-01  1.50000000E+00  1.50000000E+00  8.00000000E-01  8.00000000E-01
  1.50000000E+00  1.50000000E+00  8.00000000E-01  8.00000000E-01  1.50000000E+00
  1.50000000E+00  8.00000000E-01  8.00000000E-01  1.50000000E+00  1.50000000E+00
  8.00000000E-01  8.00000000E-01  1.50000000E+00  1.50000000E+00  8.00000000E-01
  8.00000000E-01  1.50000000E+00  1.50000000E+00  8.00000000E-01  8.00000000E-01
  1.50000000E+00  1.50000000E+00  8.00000000E-01  8.00000000E-01  1.50000000E+00
  1.50000000E+00  8.00000000E-01  8.00000000E-01  1.50000000E+00  1.50000000E+00
  8.00000000E-01  8.00000000E-01  1.50000000E+00  1.50000000E+00  8.00000000E-01
  8.00000000E-01  1.50000000E+00  1.50000000E+00  8.00000000E-01  8.00000000E-01
  1.50000000E+00  1.50000000E+00  8.00000000E-01  8.00000000E-01  1.50000000E+00
  1.50000000E+00  8.00000000E-01  8.00000000E-01  1.50000000E+00  1.50000000E+00
  8.00000000E-01  8.00000000E-01  1.50000000E+00  1.50000000E+00  8.00000000E-01
  8.00000000E-01  1.50000000E+00  1.50000000E+00  8.00000000E-01  8.00000000E-01
  1.50000000E+00  1.50000000E+00  8.00000000E-01  8.00000000E-01  1.50000000E+00
  1.50000000E+00  8.00000000E-01  8.00000000E-01  1.50000000E+00  1.50000000E+00
  8.00000000E-01  8.00000000E-01  1.50000000E+00  1.50000000E+00  8.00000000E-01
  8.00000000E-01  1.50000000E+00  1.50000000E+00  8.00000000E-01  8.00000000E-01
  1.50000000E+00  1.50000000E+00  8.00000000E-01  8.00000000E-01  1.50000000E+00
  1.50000000E+00  8.00000000E-01  8.00000000E-01  1.50000000E+00  1.50000000E+00
  8.00000000E-01  8.00000000E-01  1.50000000E+00  1.50000000E+00  8.00000000E-01
  8.00000000E-01  1.50000000E+00  1.50000000E+00  8.00000000E-01  8.00000000E-01
  1.50000000E+00  1.50000000E+00  8.00000000E-01  8.00000000E-01  1.50000000E+00
  1.50000000E+00  8.00000000E-01  8.00000000E-01  1.50000000E+00  1.50000000E+00
  8.00000000E-01  8.00000000E-01  1.50000000E+00  1.50000000E+00  8.00000000E-01
  8.00000000E-01  1.50000000E+00  1.50000000E+00  8.00000000E-01  8.00000000E-01
  1.50000000E+00  1.50000000E+00  8.00000000E-01  8.00000000E-01  1.50000000E+00
  1.50000000E+00  8.00000000E-01  8.00000000E-01  1.50000000E+00  1.50000000E+00
  8.00000000E-01  8.00000000E-01  1.50000000E+00  1.50000000E+00  8.00000000E-01
  8.00000000E-01  1.50000000E+00  1.50000000E+00  8.00000000E-01  8.00000000E-01
  1.50000000E+00  1.50000000E+00  8.00000000E-01  8.00000000E-01  1.50000000E+00
  1.50000000E+00  8.00000000E-01  8.00000000E-01  1.50000000E+00  1.50000000E+00
  8.00000000E-01  8.00000000E-01  1.50000000E+00  1.50000000E+00  8.00000000E-01
  8.00000000E-01  1.50000000E+00  1.50000000E+00  8.00000000E-01  8.00000000E-01
  1.50000000E+00  1.50000000E+00  8.00000000E-01  8.00000000E-01  1.50000000E+00
  1.50000000E+00  8.00000000E-01  8.00000000E-01  1.50000000E+00  1.50000000E+00
  8.00000000E-01  8.00000000E-01  1.50000000E+00  1.50000000E+00  8.00000000E-01
  8.00000000E-01  1.50000000E+00  1.50000000E+00  8.00000000E-01  8.00000000E-01
  1.50000000E+00  1.50000000E+00  8.00000000E-01  8.00000000E-01  1.50000000E+00
  1.50000000E+00  8.00000000E-01  8.00000000E-01  1.50000000E+00  1.50000000E+00
  8.00000000E-01  8.00000000E-01  1.50000000E+00  1.50000000E+00  8.00000000E-01
  8.00000000E-01  1.50000000E+00  1.50000000E+00  8.00000000E-01  8.00000000E-01
  1.50000000E+00  1.50000000E+00  8.00000000E-01  8.00000000E-01  1.50000000E+00
  1.50000000E+00  8.00000000E-01  8.00000000E-01  1.50000000E+00  1.50000000E+00
  8.00000000E-01  8.00000000E-01  1.50000000E+00  1.50000000E+00  8.00000000E-01
  8.00000000E-01  1.50000000E+00  1.50000000E+00  8.00000000E-01  8.00000000E-01
  1.50000000E+00  1.50000000E+00  8.00000000E-01  8.00000000E-01  1.50000000E+00
  1.50000000E+00  8.00000000E-01  8.00000000E-01  1.50000000E+00  1.50000000E+00
  8.00000000E-01  8.00000000E-01  1.50000000E+00  1.50000000E+00  8.00000000E-01
  8.00000000E-01  1.50000000E+00  1.50000000E+00  8.00000000E-01  8.00000000E-01
  1.50000000E+00  1.50000000E+00  8.00000000E-01  8.00000000E-01  1.50000000E+00
  1.50000000E+00  8.00000000E-01  8.00000000E-01  1.50000000E+00  1.50000000E+00
  8.00000000E-01  8.00000000E-01  1.50000000E+00  1.50000000E+00  8.00000000E-01
  8.00000000E-01  1.50000000E+00  1.50000000E+00  8.00000000E-01  8.00000000E-01
  1.50000000E+00  1.50000000E+00  8.00000000E-01  8.00000000E-01  1.50000000E+00
  1.50000000E+00  8.00000000E-01  8.00000000E-01  1.50000000E+00  1.50000000E+00
  8.00000000E-01  8.00000000E-01  1.50000000E+00  1.50000000E+00  8.00000000E-01
  8.00000000E-01  1.50000000E+00  1.50000000E+00  8.00000000E-01  8.00000000E-01
  1.50000000E+00  1.50000000E+00  8.00000000E-01  8.00000000E-01  1.50000000E+00
  1.50000000E+00  8.00000000E-01  8.00000000E-01  1.50000000E+00  1.50000000E+00
  8.00000000E-01  8.00000000E-01  1.50000000E+00  1.50000000E+00  8.00000000E-01
  8.00000000E-01  1.50000000E+00  1.50000000E+00  8.00000000E-01  8.00000000E-01
  1.50000000E+00  1.50000000E+00  8.00000000E-01  8.00000000E-01  1.50000000E+00
  1.50000000E+00  8.00000000E-01  8.00000000E-01  1.50000000E+00  1.50000000E+00
  8.00000000E-01  8.00000000E-01  1.50000000E+00  1.50000000E+00  8.00000000E-01
  8.00000000E-01  1.50000000E+00  1.50000000E+00  8.00000000E-01  8.00000000E-01
  1.50000000E+00  1.50000000E+00  8.00000000E-01  8.00000000E-01  1.50000000E+00
  1.50000000E+00  8.00000000E-01  8.00000000E-01  1.50000000E+00  1.50000000E+00
  8.00000000E-01  8.00000000E-01  1.50000000E+00  1.50000000E+00  8.00000000E-01
  8.00000000E-01  1.50000000E+00  1.50000000E+00  8.00000000E-01  8.00000000E-01
  1.50000000E+00  1.50000000E+00  8.00000000E-01  8.00000000E-01  1.50000000E+00
  1.50000000E+00  8.00000000E-01  8.00000000E-01  1.50000000E+00  1.50000000E+00
  8.00000000E-01  8.00000000E-01  1.50000000E+00  1.50000000E+00  8.00000000E-01
  8.00000000E-01  1.50000000E+00  1.50000000E+00  8.00000000E-01  8.00000000E-01
  1.50000000E+00  1.50000000E+00  8.00000000E-01  8.00000000E-01  1.50000000E+00
  1.50000000E+00  8.00000000E-01  8.00000000E-01  1.50000000E+00  1.50000000E+00
  8.00000000E-01  8.00000000E-01  1.50000000E+00  1.50000000E+00  8.00000000E-01
  8.00000000E-01  1.50000000E+00  1.50000000E+00  8.00000000E-01  8.00000000E-01
  1.50000000E+00  1.50000000E+00  8.00000000E-01  8.00000000E-01  1.50000000E+00
  1.50000000E+00  8.00000000E-01  8.00000000E-01  1.50000000E+00  1.50000000E+00
  8.00000000E-01  8.00000000E-01  1.50000000E+00  1.50000000E+00  8.00000000E-01
  8.00000000E-01  1.50000000E+00  1.50000000E+00  8.00000000E-01  8.00000000E-01
  1.50000000E+00  1.50000000E+00  8.00000000E-01  8.00000000E-01  1.50000000E+00
  1.50000000E+00  8.00000000E-01  8.00000000E-01  1.50000000E+00  1.50000000E+00
  8.00000000E-01  8.00000000E-01  1.50000000E+00  1.50000000E+00  8.00000000E-01
  8.00000000E-01  1.50000000E+00  1.50000000E+00  8.00000000E-01  8.00000000E-01
  1.50000000E+00  1.50000000E+00  8.00000000E-01  8.00000000E-01  1.50000000E+00
  1.50000000E+00  8.00000000E-01  8.00000000E-01  1.50000000E+00  1.50000000E+00
  8.00000000E-01  8.00000000E-01  1.50000000E+00  1.50000000E+00  8.00000000E-01
  8.00000000E-01  1.50000000E+00  1.50000000E+00  8.00000000E-01  8.00000000E-01
  1.50000000E+00  1.50000000E+00  8.00000000E-01  8.00000000E-01  1.50000000E+00
  1.50000000E+00  8.00000000E-01  8.00000000E-01  1.50000000E+00  1.50000000E+00
  8.00000000E-01  8.00000000E-01  1.50000000E+00  1.50000000E+00  8.00000000E-01
  8.00000000E-01  1.50000000E+00  1.50000000E+00  8.00000000E-01  8.00000000E-01
  1.50000000E+00  1.50000000E+00  8.00000000E-01  8.00000000E-01  1.50000000E+00
  1.50000000E+00  8.00000000E-01  8.00000000E-01  1.50000000E+00  1.50000000E+00
  8.00000000E-01  8.00000000E-01  1.50000000E+00  1.50000000E+00  8.00000000E-01
  8.00000000E-01  1.50000000E+00  1.50000000E+00  8.00000000E-01  8.00000000E-01
  1.50000000E+00  1.50000000E+00  8.00000000E-01  8.00000000E-01  1.50000000E+00
  1.50000000E+00  8.00000000E-01  8.00000000E-01  1.50000000E+00  1.50000000E+00
  8.00000000E-01  8.00000000E-01  1.50000000E+00  1.50000000E+00  8.00000000E-01
  8.00000000E-01  1.50000000E+00  1.50000000E+00  8.00000000E-01  8.00000000E-01
  1.50000000E+00  1.50000000E+00  8.00000000E-01  8.00000000E-01  1.50000000E+00
  1.50000000E+00  8.00000000E-01  8.00000000E-01  1.50000000E+00  1.50000000E+00
  8.00000000E-01  8.00000000E-01  1.50000000E+00  1.50000000E+00  8.00000000E-01
  8.00000000E-01  1.50000000E+00  1.50000000E+00  8.00000000E-01  8.00000000E-01
  1.50000000E+00  1.50000000E+00  8.00000000E-01  8.00000000E-01  1.50000000E+00
  1.50000000E+00  8.00000000E-01  8.00000000E-01  1.50000000E+00  1.50000000E+00
  8.00000000E-01  8.00000000E-01  1.50000000E+00  1.50000000E+00  8.00000000E-01
  8.00000000E-01  1.50000000E+00  1.50000000E+00  8.00000000E-01  8.00000000E-01
  1.50000000E+00  1.50000000E+00  8.00000000E-01  8.00000000E-01  1.50000000E+00
  1.50000000E+00  8.00000000E-01  8.00000000E-01  1.50000000E+00  1.50000000E+00
  8.00000000E-01  8.00000000E-01  1.50000000E+00  1.50000000E+00  8.00000000E-01
  8.00000000E-01  1.50000000E+00  1.50000000E+00  8.00000000E-01  8.00000000E-01
  1.50000000E+00  1.50000000E+00  8.00000000E-01  8.00000000E-01  1.50000000E+00
  1.50000000E+00  8.00000000E-01  8.00000000E-01  1.50000000E+00  1.50000000E+00
  8.00000000E-01  8.00000000E-01  1.50000000E+00  1.50000000E+00  8.00000000E-01
  8.00000000E-01  1.50000000E+00  1.50000000E+00  8.00000000E-01  8.00000000E-01
  1.50000000E+00  1.50000000E+00  8.00000000E-01  8.00000000E-01  1.50000000E+00
  1.50000000E+00  8.00000000E-01  8.00000000E-01  1.50000000E+00  1.50000000E+00
  8.00000000E-01  8.00000000E-01  1.50000000E+00  1.50000000E+00  8.00000000E-01
  8.00000000E-01  1.50000000E+00  1.50000000E+00  8.00000000E-01  8.00000000E-01
  1.50000000E+00  1.50000000E+00  8.00000000E-01  8.00000000E-01  1.50000000E+00
  1.50000000E+00  8.00000000E-01  8.00000000E-01  1.50000000E+00  1.50000000E+00
  8.00000000E-01  8.00000000E-01  1.50000000E+00  1.50000000E+00  8.00000000E-01
  8.00000000E-01  1.50000000E+00  1.50000000E+00  8.00000000E-01  8.00000000E-01
  1.50000000E+00  1.50000000E+00  8.00000000E-01  8.00000000E-01  1.50000000E+00
  1.50000000E+00  8.00000000E-01  8.00000000E-01  1.50000000E+00  1.50000000E+00
  8.00000000E-01  8.00000000E-01  1.50000000E+00  1.50000000E+00  8.00000000E-01
  8.00000000E-01  1.50000000E+00  1.50000000E+00  8.00000000E-01  8.00000000E-01
  1.50000000E+00  1.50000000E+00  8.00000000E-01  8.00000000E-01  1.50000000E+00
  1.50000000E+00  8.00000000E-01  8.00000000E-01  1.50000000E+00  1.50000000E+00
  8.00000000E-01  8.00000000E-01  1.50000000E+00  1.50000000E+00  8.00000000E-01
  8.00000000E-01  1.50000000E+00  1.50000000E+00  8.00000000E-01  8.00000000E-01
  1.50000000E+00  1.50000000E+00  8.00000000E-01  8.00000000E-01  1.50000000E+00
  1.50000000E+00  8.00000000E-01  8.00000000E-01  1.50000000E+00  1.50000000E+00
  8.00000000E-01  8.00000000E-01  1.50000000E+00  1.50000000E+00  8.00000000E-01
  8.00000000E-01  1.50000000E+00  1.50000000E+00  8.00000000E-01  8.00000000E-01
  1.50000000E+00  1.50000000E+00  8.00000000E-01  8.00000000E-01  1.50000000E+00
  1.50000000E+00  8.00000000E-01  8.00000000E-01  1.50000000E+00  1.50000000E+00
  8.00000000E-01  8.00000000E-01  1.50000000E+00  1.50000000E+00  8.00000000E-01
  8.00000000E-01  1.50000000E+00  1.50000000E+00  8.00000000E-01  8.00000000E-01
  1.50000000E+00  1.50000000E+00  8.00000000E-01  8.00000000E-01  1.50000000E+00
  1.50000000E+00  8.00000000E-01  8.00000000E-01  1.50000000E+00  1.50000000E+00
  8.00000000E-01  8.00000000E-01  1.50000000E+00  1.50000000E+00  8.00000000E-01
  8.00000000E-01  1.50000000E+00  1.50000000E+00  8.00000000E-01  8.00000000E-01
  1.50000000E+00  1.50000000E+00  8.00000000E-01  8.00000000E-01  1.50000000E+00
  1.50000000E+00  8.00000000E-01  8.00000000E-01  1.50000000E+00  1.50000000E+00
  8.00000000E-01  8.00000000E-01  1.50000000E+00  1.50000000E+00  8.00000000E-01
  8.00000000E-01  1.50000000E+00  1.50000000E+00  8.00000000E-01  8.00000000E-01
  1.50000000E+00  1.50000000E+00  8.00000000E-01  8.00000000E-01  1.50000000E+00
  1.50000000E+00  8.00000000E-01  8.00000000E-01  1.50000000E+00  1.50000000E+00
  8.00000000E-01  8.00000000E-01  1.50000000E+00  1.50000000E+00  8.00000000E-01
  8.00000000E-01  1.50000000E+00  1.50000000E+00  8.00000000E-01  8.00000000E-01
  1.50000000E+00  1.50000000E+00  8.00000000E-01  8.00000000E-01  1.50000000E+00
  1.50000000E+00  8.00000000E-01  8.00000000E-01  1.50000000E+00  1.50000000E+00
  8.00000000E-01  8.00000000E-01  1.50000000E+00  1.50000000E+00  8.00000000E-01
  8.00000000E-01  1.50000000E+00  1.50000000E+00  8.00000000E-01  8.00000000E-01
  1.50000000E+00  1.50000000E+00  8.00000000E-01  8.00000000E-01  1.50000000E+00
  1.50000000E+00  8.00000000E-01  8.00000000E-01  1.50000000E+00  1.50000000E+00
  8.00000000E-01  8.00000000E-01  1.50000000E+00  1.50000000E+00  8.00000000E-01
  8.00000000E-01  1.50000000E+00  1.50000000E+00  8.00000000E-01  8.00000000E-01
  1.50000000E+00  1.50000000E+00  8.00000000E-01  8.00000000E-01  1.50000000E+00
  1.50000000E+00  8.00000000E-01  8.00000000E-01  1.50000000E+00  1.50000000E+00
  8.00000000E-01  8.00000000E-01  1.50000000E+00  1.50000000E+00  8.00000000E-01
  8.00000000E-01  1.50000000E+00  1.50000000E+00  8.00000000E-01  8.00000000E-01
  1.50000000E+00  1.50000000E+00  8.00000000E-01  8.00000000E-01  1.50000000E+00
  1.50000000E+00  8.00000000E-01  8.00000000E-01  1.50000000E+00  1.50000000E+00
  8.00000000E-01  8.00000000E-01  1.50000000E+00  1.50000000E+00  8.00000000E-01
  8.00000000E-01  1.50000000E+00  1.50000000E+00  8.00000000E-01  8.00000000E-01
  1.50000000E+00  1.50000000E+00  8.00000000E-01  8.00000000E-01  1.50000000E+00
  1.50000000E+00  8.00000000E-01  8.00000000E-01  1.50000000E+00  1.50000000E+00
  8.00000000E-01  8.00000000E-01  1.50000000E+00  1.50000000E+00  8.00000000E-01
  8.00000000E-01  1.50000000E+00  1.50000000E+00  8.00000000E-01  8.00000000E-01
  1.50000000E+00  1.50000000E+00  8.00000000E-01  8.00000000E-01  1.50000000E+00
  1.50000000E+00  8.00000000E-01  8.00000000E-01  1.50000000E+00  1.50000000E+00
  8.00000000E-01  8.00000000E-01  1.50000000E+00  1.50000000E+00  8.00000000E-01
  8.00000000E-01  1.50000000E+00  1.50000000E+00  8.00000000E-01  8.00000000E-01
  1.50000000E+00  1.50000000E+00  8.00000000E-01  8.00000000E-01  1.50000000E+00
  1.50000000E+00  8.00000000E-01  8.00000000E-01  1.50000000E+00  1.50000000E+00
  8.00000000E-01  8.00000000E-01  1.50000000E+00  1.50000000E+00  8.00000000E-01
  8.00000000E-01  1.50000000E+00  1.50000000E+00  8.00000000E-01  8.00000000E-01
  1.50000000E+00  1.50000000E+00  8.00000000E-01  8.00000000E-01  1.50000000E+00
  1.50000000E+00  8.00000000E-01  8.00000000E-01  1.50000000E+00  1.50000000E+00
  8.00000000E-01  8.00000000E-01  1.50000000E+00  1.50000000E+00  8.00000000E-01
  8.00000000E-01  1.50000000E+00  1.50000000E+00  8.00000000E-01  8.00000000E-01
  1.50000000E+00  1.50000000E+00  8.00000000E-01  8.00000000E-01  1.50000000E+00
  1.50000000E+00  8.00000000E-01  8.00000000E-01  1.50000000E+00  1.50000000E+00
  8.00000000E-01  8.00000000E-01  1.50000000E+00  1.50000000E+00  8.00000000E-01
  8.00000000E-01  1.50000000E+00  1.50000000E+00  8.00000000E-01  8.00000000E-01
  1.50000000E+00  1.50000000E+00  8.00000000E-01  8.00000000E-01  1.50000000E+00
  1.50000000E+00  8.00000000E-01  8.00000000E-01  1.50000000E+00  1.50000000E+00
  8.00000000E-01  8.00000000E-01  1.50000000E+00  1.50000000E+00  8.00000000E-01
  8.00000000E-01  1.50000000E+00  1.50000000E+00  8.00000000E-01  8.00000000E-01
  1.50000000E+00  1.50000000E+00  8.00000000E-01  8.00000000E-01  1.50000000E+00
  1.50000000E+00  8.00000000E-01  8.00000000E-01  1.50000000E+00  1.50000000E+00
  8.00000000E-01  8.00000000E-01  1.50000000E+00  1.50000000E+00  8.00000000E-01
  8.00000000E-01  1.50000000E+00  1.50000000E+00  8.00000000E-01  8.00000000E-01
  1.50000000E+00  1.50000000E+00  8.00000000E-01  8.00000000E-01  1.50000000E+00
  1.50000000E+00  8.00000000E-01  8.00000000E-01  1.50000000E+00  1.50000000E+00
  8.00000000E-01  8.00000000E-01  1.50000000E+00  1.50000000E+00  8.00000000E-01
  8.00000000E-01  1.50000000E+00  1.50000000E+00  8.00000000E-01  8.00000000E-01
  1.50000000E+00  1.50000000E+00  8.00000000E-01  8.00000000E-01  1.50000000E+00
  1.50000000E+00  8.00000000E-01  8.00000000E-01  1.50000000E+00  1.50000000E+00
  8.00000000E-01  8.00000000E-01  1.50000000E+00  1.50000000E+00  8.00000000E-01
  8.00000000E-01  1.50000000E+00  1.50000000E+00  8.00000000E-01  8.00000000E-01
  1.50000000E+00  1.50000000E+00  8.00000000E-01  8.00000000E-01  1.50000000E+00
  1.50000000E+00  8.00000000E-01  8.00000000E-01  1.50000000E+00  1.50000000E+00
  8.00000000E-01  8.00000000E-01  1.50000000E+00  1.50000000E+00  8.00000000E-01
  8.00000000E-01  1.50000000E+00  1.50000000E+00  8.00000000E-01  8.00000000E-01
  1.50000000E+00  1.50000000E+00  8.00000000E-01  8.00000000E-01  1.50000000E+00
  1.50000000E+00  8.00000000E-01  8.00000000E-01  1.50000000E+00  1.50000000E+00
  8.00000000E-01  8.00000000E-01  1.50000000E+00  1.50000000E+00  8.00000000E-01
  8.00000000E-01  1.50000000E+00  1.50000000E+00  8.00000000E-01  8.00000000E-01
  1.50000000E+00  1.50000000E+00  8.00000000E-01  8.00000000E-01  1.50000000E+00
  1.50000000E+00  8.00000000E-01  8.00000000E-01  1.50000000E+00  1.50000000E+00
  8.00000000E-01  8.00000000E-01  1.50000000E+00  1.50000000E+00  8.00000000E-01
  8.00000000E-01  1.50000000E+00  1.50000000E+00  8.00000000E-01  8.00000000E-01
  1.50000000E+00  1.50000000E+00  8.00000000E-01  8.00000000E-01  1.50000000E+00
  1.50000000E+00  8.00000000E-01  8.00000000E-01  1.50000000E+00  1.50000000E+00
  8.00000000E-01  8.00000000E-01  1.50000000E+00  1.50000000E+00  8.00000000E-01
  8.00000000E-01  1.50000000E+00  1.50000000E+00  8.00000000E-01  8.00000000E-01
  1.50000000E+00  1.50000000E+00  8.00000000E-01  8.00000000E-01  1.50000000E+00
  1.50000000E+00  8.00000000E-01  8.00000000E-01  1.50000000E+00  1.50000000E+00
  8.00000000E-01  8.00000000E-01  1.50000000E+00  1.50000000E+00  8.00000000E-01
  8.00000000E-01  1.50000000E+00  1.50000000E+00  8.00000000E-01  8.00000000E-01
  1.50000000E+00  1.50000000E+00  8.00000000E-01  8.00000000E-01  1.50000000E+00
  1.50000000E+00  8.00000000E-01  8.00000000E-01  1.50000000E+00  1.50000000E+00
  8.00000000E-01  8.00000000E-01  1.50000000E+00  1.50000000E+00  8.00000000E-01
  8.00000000E-01  1.50000000E+00  1.50000000E+00  8.00000000E-01  8.00000000E-01
  1.50000000E+00  1.50000000E+00  8.00000000E-01  8.00000000E-01  1.50000000E+00
  1.50000000E+00  8.00000000E-01  8.00000000E-01  1.50000000E+00  1.50000000E+00
  8.00000000E-01  8.00000000E-01  1.50000000E+00  1.50000000E+00  8.00000000E-01
  8.00000000E-01  1.50000000E+00  1.50000000E+00  8.00000000E-01  8.00000000E-01
  1.50000000E+00  1.50000000E+00  8.00000000E-01  8.00000000E-01  1.50000000E+00
  1.50000000E+00  8.00000000E-01  8.00000000E-01  1.50000000E+00  1.50000000E+00
  8.00000000E-01  8.00000000E-01  1.50000000E+00  1.50000000E+00  8.00000000E-01
  8.00000000E-01  1.50000000E+00  1.50000000E+00  8.00000000E-01  8.00000000E-01
  1.50000000E+00  1.50000000E+00  8.00000000E-01  8.00000000E-01  1.50000000E+00
  1.50000000E+00  8.00000000E-01  8.00000000E-01  1.50000000E+00  1.50000000E+00
  8.00000000E-01  8.00000000E-01  1.50000000E+00  1.50000000E+00  8.00000000E-01
  8.00000000E-01  1.50000000E+00  1.50000000E+00  8.00000000E-01  8.00000000E-01
  1.50000000E+00  1.50000000E+00  8.00000000E-01  8.00000000E-01  1.50000000E+00
  1.50000000E+00  8.00000000E-01  8.00000000E-01  1.50000000E+00  1.50000000E+00
  8.00000000E-01  8.00000000E-01  1.50000000E+00  1.50000000E+00  8.00000000E-01
  8.00000000E-01  1.50000000E+00  1.50000000E+00  8.00000000E-01  8.00000000E-01
  1.50000000E+00  1.50000000E+00  8.00000000E-01  8.00000000E-01  1.50000000E+00
  1.50000000E+00  8.00000000E-01  8.00000000E-01  1.50000000E+00  1.50000000E+00
  8.00000000E-01  8.00000000E-01  1.50000000E+00  1.50000000E+00  8.00000000E-01
  8.00000000E-01  1.50000000E+00  1.50000000E+00  8.00000000E-01  8.00000000E-01
  1.50000000E+00  1.50000000E+00  8.00000000E-01  8.00000000E-01  1.50000000E+00
  1.50000000E+00  8.00000000E-01  8.00000000E-01  1.50000000E+00  1.50000000E+00
  8.00000000E-01  8.00000000E-01  1.50000000E+00  1.50000000E+00  8.00000000E-01
  8.00000000E-01  1.50000000E+00  1.50000000E+00  8.00000000E-01  8.00000000E-01
  1.50000000E+00  1.50000000E+00  8.00000000E-01  8.00000000E-01  1.50000000E+00
  1.50000000E+00  8.00000000E-01  8.00000000E-01  1.50000000E+00  1.50000000E+00
  8.00000000E-01  8.00000000E-01  1.50000000E+00  1.50000000E+00  8.00000000E-01
  8.00000000E-01  1.50000000E+00  1.50000000E+00  8.00000000E-01  8.00000000E-01
  1.50000000E+00  1.50000000E+00  8.00000000E-01  8.00000000E-01  1.50000000E+00
  1.50000000E+00  8.00000000E-01  8.00000000E-01  1.50000000E+00  1.50000000E+00
  8.00000000E-01  8.00000000E-01  1.50000000E+00  1.50000000E+00  8.00000000E-01
  8.00000000E-01  1.50000000E+00  1.50000000E+00  8.00000000E-01  8.00000000E-01
  1.50000000E+00  1.50000000E+00  8.00000000E-01  8.00000000E-01  1.50000000E+00
  1.50000000E+00  8.00000000E-01  8.00000000E-01  1.50000000E+00  1.50000000E+00
  8.00000000E-01  8.00000000E-01  1.50000000E+00  1.50000000E+00  8.00000000E-01
  8.00000000E-01  1.50000000E+00  1.50000000E+00  8.00000000E-01  8.00000000E-01
  1.50000000E+00  1.50000000E+00  8.00000000E-01  8.00000000E-01  1.50000000E+00
  1.50000000E+00  8.00000000E-01  8.00000000E-01  1.50000000E+00  1.50000000E+00
  8.00000000E-01  8.00000000E-01  1.50000000E+00  1.50000000E+00  8.00000000E-01
  8.00000000E-01  1.50000000E+00  1.50000000E+00  8.00000000E-01  8.00000000E-01
  1.50000000E+00  1.50000000E+00  8.00000000E-01  8.00000000E-01  1.50000000E+00
  1.50000000E+00  8.00000000E-01  8.00000000E-01  1.50000000E+00  1.50000000E+00
  8.00000000E-01  8.00000000E-01  1.50000000E+00  1.50000000E+00  8.00000000E-01
  8.00000000E-01  1.50000000E+00  1.50000000E+00  8.00000000E-01  8.00000000E-01
  1.50000000E+00  1.50000000E+00  8.00000000E-01  8.00000000E-01  1.50000000E+00
  1.50000000E+00  8.00000000E-01  8.00000000E-01  1.50000000E+00  1.50000000E+00
  8.00000000E-01  8.00000000E-01  1.50000000E+00  1.50000000E+00  8.00000000E-01
  8.00000000E-01  1.50000000E+00  1.50000000E+00  8.00000000E-01  8.00000000E-01
  1.50000000E+00  1.50000000E+00  8.00000000E-01  8.00000000E-01  1.50000000E+00
  1.50000000E+00  8.00000000E-01  8.00000000E-01  1.50000000E+00  1.50000000E+00
  8.00000000E-01  8.00000000E-01  1.50000000E+00  1.50000000E+00  8.00000000E-01
  8.00000000E-01  1.50000000E+00  1.50000000E+00  8.00000000E-01  8.00000000E-01
  1.50000000E+00  1.50000000E+00  8.00000000E-01  8.00000000E-01  1.50000000E+00
  1.50000000E+00  8.00000000E-01  8.00000000E-01  1.50000000E+00  1.50000000E+00
  8.00000000E-01  8.00000000E-01  1.50000000E+00  1.50000000E+00  8.00000000E-01
  8.00000000E-01  1.50000000E+00  1.50000000E+00  8.00000000E-01  8.00000000E-01
  1.50000000E+00  1.50000000E+00  8.00000000E-01  8.00000000E-01  1.50000000E+00
  1.50000000E+00  8.00000000E-01  8.00000000E-01  1.50000000E+00  1.50000000E+00
  8.00000000E-01  8.00000000E-01  1.50000000E+00  1.50000000E+00  8.00000000E-01
  8.00000000E-01  1.50000000E+00  1.50000000E+00  8.00000000E-01  8.00000000E-01
  1.50000000E+00  1.50000000E+00  8.00000000E-01  8.00000000E-01  1.50000000E+00
  1.50000000E+00  8.00000000E-01  8.00000000E-01  1.50000000E+00  1.50000000E+00
  8.00000000E-01  8.00000000E-01  1.50000000E+00  1.50000000E+00  8.00000000E-01
  8.00000000E-01  1.50000000E+00  1.50000000E+00  8.00000000E-01  8.00000000E-01
  1.50000000E+00  1.50000000E+00  8.00000000E-01  8.00000000E-01  1.50000000E+00
  1.50000000E+00  8.00000000E-01  8.00000000E-01  1.50000000E+00  1.50000000E+00
  8.00000000E-01  8.00000000E-01  1.50000000E+00  1.50000000E+00  8.00000000E-01
  8.00000000E-01  1.50000000E+00  1.50000000E+00  8.00000000E-01  8.00000000E-01
  1.50000000E+00  1.50000000E+00  8.00000000E-01  8.00000000E-01  1.50000000E+00
  1.50000000E+00  8.00000000E-01  8.00000000E-01  1.50000000E+00  1.50000000E+00
  8.00000000E-01  8.00000000E-01  1.50000000E+00  1.50000000E+00  8.00000000E-01
  8.00000000E-01  1.50000000E+00  1.50000000E+00  8.00000000E-01  8.00000000E-01
  1.50000000E+00  1.50000000E+00  8.00000000E-01  8.00000000E-01  1.50000000E+00
  1.50000000E+00  8.00000000E-01  8.00000000E-01  1.50000000E+00  1.50000000E+00
  8.00000000E-01  8.00000000E-01  1.50000000E+00  1.50000000E+00  8.00000000E-01
  8.00000000E-01  1.50000000E+00  1.50000000E+00  8.00000000E-01  8.00000000E-01
  1.50000000E+00  1.50000000E+00  8.00000000E-01  8.00000000E-01  1.50000000E+00
  1.50000000E+00  8.00000000E-01  8.00000000E-01  1.50000000E+00  1.50000000E+00
  8.00000000E-01  8.00000000E-01  1.50000000E+00  1.50000000E+00  8.00000000E-01
  8.00000000E-01  1.50000000E+00  1.50000000E+00  8.00000000E-01  8.00000000E-01
  1.50000000E+00  1.50000000E+00  8.00000000E-01  8.00000000E-01  1.50000000E+00
  1.50000000E+00  8.00000000E-01  8.00000000E-01  1.50000000E+00  1.50000000E+00
  8.00000000E-01  8.00000000E-01  1.50000000E+00  1.50000000E+00  8.00000000E-01
  8.00000000E-01  1.50000000E+00  1.50000000E+00  8.00000000E-01  8.00000000E-01
  1.50000000E+00  1.50000000E+00  8.00000000E-01  8.00000000E-01  1.50000000E+00
  1.50000000E+00  8.00000000E-01  8.00000000E-01  1.50000000E+00  1.50000000E+00
  8.00000000E-01  8.00000000E-01  1.50000000E+00  1.50000000E+00  8.00000000E-01
  8.00000000E-01  1.50000000E+00  1.50000000E+00  8.00000000E-01  8.00000000E-01
  1.50000000E+00  1.50000000E+00  8.00000000E-01  8.00000000E-01  1.50000000E+00
  1.50000000E+00  8.00000000E-01  8.00000000E-01  1.50000000E+00  1.50000000E+00
  8.00000000E-01  8.00000000E-01  1.50000000E+00  1.50000000E+00  8.00000000E-01
  8.00000000E-01  1.50000000E+00  1.50000000E+00  8.00000000E-01  8.00000000E-01
  1.50000000E+00  1.50000000E+00  8.00000000E-01  8.00000000E-01  1.50000000E+00
  1.50000000E+00  8.00000000E-01  8.00000000E-01  1.50000000E+00  1.50000000E+00
  8.00000000E-01  8.00000000E-01  1.50000000E+00  1.50000000E+00  8.00000000E-01
  8.00000000E-01  1.50000000E+00  1.50000000E+00  8.00000000E-01  8.00000000E-01
  1.50000000E+00  1.50000000E+00  8.00000000E-01  8.00000000E-01  1.50000000E+00
  1.50000000E+00  8.00000000E-01  8.00000000E-01  1.50000000E+00  1.50000000E+00
  8.00000000E-01  8.00000000E-01  1.50000000E+00  1.50000000E+00  8.00000000E-01
  8.00000000E-01  1.50000000E+00  1.50000000E+00  8.00000000E-01  8.00000000E-01
  1.50000000E+00  1.50000000E+00  8.00000000E-01  8.00000000E-01  1.50000000E+00
  1.50000000E+00  8.00000000E-01  8.00000000E-01  1.50000000E+00  1.50000000E+00
  8.00000000E-01  8.00000000E-01  1.50000000E+00  1.50000000E+00  8.00000000E-01
  8.00000000E-01  1.50000000E+00  1.50000000E+00  8.00000000E-01  8.00000000E-01
  1.50000000E+00  1.50000000E+00  8.00000000E-01  8.00000000E-01  1.50000000E+00
  1.50000000E+00  8.00000000E-01  8.00000000E-01  1.50000000E+00  1.50000000E+00
  8.00000000E-01  8.00000000E-01  1.50000000E+00  1.50000000E+00  8.00000000E-01
  8.00000000E-01  1.50000000E+00  1.50000000E+00  8.00000000E-01  8.00000000E-01
  1.50000000E+00  1.50000000E+00  8.00000000E-01  8.00000000E-01  1.50000000E+00
  1.50000000E+00  8.00000000E-01  8.00000000E-01  1.50000000E+00  1.50000000E+00
  8.00000000E-01  8.00000000E-01  1.50000000E+00  1.50000000E+00  8.00000000E-01
  8.00000000E-01  1.50000000E+00  1.50000000E+00  8.00000000E-01  8.00000000E-01
  1.50000000E+00  1.50000000E+00  8.00000000E-01  8.00000000E-01  1.50000000E+00
  1.50000000E+00  8.00000000E-01  8.00000000E-01  1.50000000E+00  1.50000000E+00
  8.00000000E-01  8.00000000E-01  1.50000000E+00  1.50000000E+00  8.00000000E-01
  8.00000000E-01  1.50000000E+00  1.50000000E+00  8.00000000E-01  8.00000000E-01
  1.50000000E+00  1.50000000E+00  8.00000000E-01  8.00000000E-01  1.50000000E+00
  1.50000000E+00  8.00000000E-01  8.00000000E-01  1.50000000E+00  1.50000000E+00
  8.00000000E-01  8.00000000E-01  1.50000000E+00  1.50000000E+00  8.00000000E-01
  8.00000000E-01  1.50000000E+00  1.50000000E+00  8.00000000E-01  8.00000000E-01
  1.50000000E+00  1.50000000E+00  8.00000000E-01  8.00000000E-01  1.50000000E+00
  1.50000000E+00  8.00000000E-01  8.00000000E-01  1.50000000E+00  1.50000000E+00
  8.00000000E-01  8.00000000E-01  1.50000000E+00  1.50000000E+00  8.00000000E-01
  8.00000000E-01  1.50000000E+00  1.50000000E+00  8.00000000E-01  8.00000000E-01
  1.50000000E+00  1.50000000E+00  8.00000000E-01  8.00000000E-01  1.50000000E+00
  1.50000000E+00  8.00000000E-01  8.00000000E-01  1.50000000E+00  1.50000000E+00
  8.00000000E-01  8.00000000E-01  1.50000000E+00  1.50000000E+00  8.00000000E-01
  8.00000000E-01  1.50000000E+00  1.50000000E+00  8.00000000E-01  8.00000000E-01
  1.50000000E+00  1.50000000E+00  8.00000000E-01  8.00000000E-01  1.50000000E+00
  1.50000000E+00  8.00000000E-01  8.00000000E-01  1.50000000E+00  1.50000000E+00
  8.00000000E-01  8.00000000E-01  1.50000000E+00  1.50000000E+00  8.00000000E-01
  8.00000000E-01  1.50000000E+00  1.50000000E+00  8.00000000E-01  8.00000000E-01
  1.50000000E+00  1.50000000E+00  8.00000000E-01  8.00000000E-01  1.50000000E+00
  1.50000000E+00  8.00000000E-01  8.00000000E-01  1.50000000E+00  1.50000000E+00
  8.00000000E-01  8.00000000E-01  1.50000000E+00  1.50000000E+00  8.00000000E-01
  8.00000000E-01  1.50000000E+00  1.50000000E+00  8.00000000E-01  8.00000000E-01
  1.50000000E+00  1.50000000E+00  8.00000000E-01  8.00000000E-01  1.50000000E+00
  1.50000000E+00  8.00000000E-01  8.00000000E-01  1.50000000E+00  1.50000000E+00
  8.00000000E-01  8.00000000E-01  1.50000000E+00  1.50000000E+00  8.00000000E-01
  8.00000000E-01  1.50000000E+00  1.50000000E+00  8.00000000E-01  8.00000000E-01
  1.50000000E+00  1.50000000E+00  8.00000000E-01  8.00000000E-01  1.50000000E+00
  1.50000000E+00  8.00000000E-01  8.00000000E-01  1.50000000E+00  1.50000000E+00
  8.00000000E-01  8.00000000E-01  1.50000000E+00  1.50000000E+00  8.00000000E-01
  8.00000000E-01  1.50000000E+00  1.50000000E+00  8.00000000E-01  8.00000000E-01
  1.50000000E+00  1.50000000E+00  8.00000000E-01  8.00000000E-01  1.50000000E+00
  1.50000000E+00  8.00000000E-01  8.00000000E-01  1.50000000E+00  1.50000000E+00
  8.00000000E-01  8.00000000E-01  1.50000000E+00  1.50000000E+00  8.00000000E-01
  8.00000000E-01  1.50000000E+00  1.50000000E+00  8.00000000E-01  8.00000000E-01
  1.50000000E+00  1.50000000E+00  8.00000000E-01  8.00000000E-01  1.50000000E+00
  1.50000000E+00  8.00000000E-01  8.00000000E-01  1.50000000E+00  1.50000000E+00
  8.00000000E-01  8.00000000E-01  1.50000000E+00  1.50000000E+00  8.00000000E-01
  8.00000000E-01  1.50000000E+00  1.50000000E+00  8.00000000E-01  8.00000000E-01
  1.50000000E+00  1.50000000E+00  8.00000000E-01  8.00000000E-01  1.50000000E+00
  1.50000000E+00  8.00000000E-01  8.00000000E-01  1.50000000E+00  1.50000000E+00
  8.00000000E-01  8.00000000E-01  1.50000000E+00  1.50000000E+00  8.00000000E-01
  8.00000000E-01  1.50000000E+00  1.50000000E+00  8.00000000E-01  8.00000000E-01
  1.50000000E+00  1.50000000E+00  8.00000000E-01  8.00000000E-01  1.50000000E+00
  1.50000000E+00  8.00000000E-01  8.00000000E-01  1.50000000E+00  1.50000000E+00
  8.00000000E-01  8.00000000E-01  1.50000000E+00  1.50000000E+00  8.00000000E-01
  8.00000000E-01  1.50000000E+00  1.50000000E+00  8.00000000E-01  8.00000000E-01
  1.50000000E+00  1.50000000E+00  8.00000000E-01  8.00000000E-01  1.50000000E+00
  1.50000000E+00  8.00000000E-01  8.00000000E-01  1.50000000E+00  1.50000000E+00
  8.00000000E-01  8.00000000E-01  1.50000000E+00  1.50000000E+00  8.00000000E-01
  8.00000000E-01  1.50000000E+00  1.50000000E+00  8.00000000E-01  8.00000000E-01
  1.50000000E+00  1.50000000E+00  8.00000000E-01  8.00000000E-01  1.50000000E+00
  1.50000000E+00  8.00000000E-01  8.00000000E-01  1.50000000E+00  1.50000000E+00
  8.00000000E-01  8.00000000E-01  1.50000000E+00  1.50000000E+00  8.00000000E-01
  8.00000000E-01  1.50000000E+00  1.50000000E+00  8.00000000E-01  8.00000000E-01
  1.50000000E+00  1.50000000E+00  8.00000000E-01  8.00000000E-01  1.50000000E+00
  1.50000000E+00  8.00000000E-01  8.00000000E-01  1.50000000E+00  1.50000000E+00
  8.00000000E-01  8.00000000E-01  1.50000000E+00  1.50000000E+00  8.00000000E-01
  8.00000000E-01  1.50000000E+00  1.50000000E+00  8.00000000E-01  8.00000000E-01
  1.50000000E+00  1.50000000E+00  8.00000000E-01  8.00000000E-01  1.50000000E+00
  1.50000000E+00  8.00000000E-01  8.00000000E-01  1.50000000E+00  1.50000000E+00
  8.00000000E-01  8.00000000E-01  1.50000000E+00  1.50000000E+00  8.00000000E-01
  8.00000000E-01  1.50000000E+00  1.50000000E+00  8.00000000E-01  8.00000000E-01
  1.50000000E+00  1.50000000E+00  8.00000000E-01  8.00000000E-01  1.50000000E+00
  1.50000000E+00  8.00000000E-01  8.00000000E-01  1.50000000E+00  1.50000000E+00
  8.00000000E-01  8.00000000E-01  1.50000000E+00  1.50000000E+00  8.00000000E-01
  8.00000000E-01  1.50000000E+00  1.50000000E+00  8.00000000E-01  8.00000000E-01
  1.50000000E+00  1.50000000E+00  8.00000000E-01  8.00000000E-01  1.50000000E+00
  1.50000000E+00  8.00000000E-01  8.00000000E-01  1.50000000E+00  1.50000000E+00
  8.00000000E-01  8.00000000E-01  1.50000000E+00  1.50000000E+00  8.00000000E-01
  8.00000000E-01  1.50000000E+00  1.50000000E+00  8.00000000E-01  8.00000000E-01
  1.50000000E+00  1.50000000E+00  8.00000000E-01  8.00000000E-01  1.50000000E+00
  1.50000000E+00  8.00000000E-01  8.00000000E-01  1.50000000E+00  1.50000000E+00
  8.00000000E-01  8.00000000E-01  1.50000000E+00  1.50000000E+00  8.00000000E-01
  8.00000000E-01  1.50000000E+00  1.50000000E+00  8.00000000E-01  8.00000000E-01
  1.50000000E+00  1.50000000E+00  8.00000000E-01  8.00000000E-01  1.50000000E+00
  1.50000000E+00  8.00000000E-01  8.00000000E-01  1.50000000E+00  1.50000000E+00
  8.00000000E-01  8.00000000E-01  1.50000000E+00  1.50000000E+00  8.00000000E-01
  8.00000000E-01  1.50000000E+00  1.50000000E+00  8.00000000E-01  8.00000000E-01
  1.50000000E+00  1.50000000E+00  8.00000000E-01  8.00000000E-01  1.50000000E+00
  1.50000000E+00  8.00000000E-01  8.00000000E-01  1.50000000E+00  1.50000000E+00
  8.00000000E-01  8.00000000E-01  1.50000000E+00  1.50000000E+00  8.00000000E-01
  8.00000000E-01  1.50000000E+00  1.50000000E+00  8.00000000E-01  8.00000000E-01
  1.50000000E+00  1.50000000E+00  8.00000000E-01  8.00000000E-01  1.50000000E+00
  1.50000000E+00  8.00000000E-01  8.00000000E-01  1.50000000E+00  1.50000000E+00
  8.00000000E-01  8.00000000E-01  1.50000000E+00  1.50000000E+00  8.00000000E-01
  8.00000000E-01  1.50000000E+00  1.50000000E+00  8.00000000E-01  8.00000000E-01
  1.50000000E+00  1.50000000E+00  8.00000000E-01  8.00000000E-01  1.50000000E+00
  1.50000000E+00  8.00000000E-01  8.00000000E-01  1.50000000E+00  1.50000000E+00
  8.00000000E-01  8.00000000E-01  1.50000000E+00  1.50000000E+00  8.00000000E-01
  8.00000000E-01  1.50000000E+00  1.50000000E+00  8.00000000E-01  8.00000000E-01
  1.50000000E+00  1.50000000E+00  8.00000000E-01  8.00000000E-01  1.50000000E+00
  1.50000000E+00  8.00000000E-01  8.00000000E-01  1.50000000E+00  1.50000000E+00
  8.00000000E-01  8.00000000E-01  1.50000000E+00  1.50000000E+00  8.00000000E-01
  8.00000000E-01  1.50000000E+00  1.50000000E+00  8.00000000E-01  8.00000000E-01
  1.50000000E+00  1.50000000E+00  8.00000000E-01  8.00000000E-01  1.50000000E+00
  1.50000000E+00  8.00000000E-01  8.00000000E-01  1.50000000E+00  1.50000000E+00
  8.00000000E-01  8.00000000E-01  1.50000000E+00  1.50000000E+00  8.00000000E-01
  8.00000000E-01  1.50000000E+00  1.50000000E+00  8.00000000E-01  8.00000000E-01
  1.50000000E+00  1.50000000E+00  8.00000000E-01  8.00000000E-01  1.50000000E+00
  1.50000000E+00  8.00000000E-01  8.00000000E-01  1.50000000E+00  1.50000000E+00
  8.00000000E-01  8.00000000E-01  1.50000000E+00  1.50000000E+00  8.00000000E-01
  8.00000000E-01  1.50000000E+00  1.50000000E+00  8.00000000E-01  8.00000000E-01
  1.50000000E+00  1.50000000E+00  8.00000000E-01  8.00000000E-01  1.50000000E+00
  1.50000000E+00  8.00000000E-01  8.00000000E-01  1.50000000E+00  1.50000000E+00
  8.00000000E-01  8.00000000E-01  1.50000000E+00  1.50000000E+00  8.00000000E-01
  8.00000000E-01  1.50000000E+00  1.50000000E+00  8.00000000E-01  8.00000000E-01
  1.50000000E+00  1.50000000E+00  8.00000000E-01  8.00000000E-01  1.50000000E+00
  1.50000000E+00  8.00000000E-01  8.00000000E-01  1.50000000E+00  1.50000000E+00
  8.00000000E-01  8.00000000E-01  1.50000000E+00  1.50000000E+00  8.00000000E-01
  8.00000000E-01  1.50000000E+00  1.50000000E+00  8.00000000E-01  8.00000000E-01
  1.50000000E+00  1.50000000E+00  8.00000000E-01  8.00000000E-01  1.50000000E+00
  1.50000000E+00  8.00000000E-01  8.00000000E-01  1.50000000E+00  1.50000000E+00
  8.00000000E-01  8.00000000E-01  1.50000000E+00  1.50000000E+00  8.00000000E-01
  8.00000000E-01  1.50000000E+00  1.50000000E+00  8.00000000E-01  8.00000000E-01
  1.50000000E+00  1.50000000E+00  8.00000000E-01  8.00000000E-01  1.50000000E+00
  1.50000000E+00  8.00000000E-01  8.00000000E-01  1.50000000E+00  1.50000000E+00
  8.00000000E-01  8.00000000E-01  1.50000000E+00  1.50000000E+00  8.00000000E-01
  8.00000000E-01  1.50000000E+00  1.50000000E+00  8.00000000E-01  8.00000000E-01
  1.50000000E+00  1.50000000E+00  8.00000000E-01  8.00000000E-01  1.50000000E+00
  1.50000000E+00  8.00000000E-01  8.00000000E-01  1.50000000E+00  1.50000000E+00
  8.00000000E-01  8.00000000E-01  1.50000000E+00  1.50000000E+00  8.00000000E-01
  8.00000000E-01  1.50000000E+00  1.50000000E+00  8.00000000E-01  8.00000000E-01
  1.50000000E+00  1.50000000E+00  8.00000000E-01  8.00000000E-01  1.50000000E+00
  1.50000000E+00  8.00000000E-01  8.00000000E-01  1.50000000E+00  1.50000000E+00
  8.00000000E-01  8.00000000E-01  1.50000000E+00  1.50000000E+00  8.00000000E-01
  8.00000000E-01  1.50000000E+00  1.50000000E+00  8.00000000E-01  8.00000000E-01
  1.50000000E+00  1.50000000E+00  8.00000000E-01  8.00000000E-01  1.50000000E+00
  1.50000000E+00  8.00000000E-01  8.00000000E-01  1.50000000E+00  1.50000000E+00
  8.00000000E-01  8.00000000E-01  1.50000000E+00  1.50000000E+00  8.00000000E-01
  8.00000000E-01  1.50000000E+00  1.50000000E+00  8.00000000E-01  8.00000000E-01
  1.50000000E+00  1.50000000E+00  8.00000000E-01  8.00000000E-01  1.50000000E+00
  1.50000000E+00  8.00000000E-01  8.00000000E-01  1.50000000E+00  1.50000000E+00
  8.00000000E-01  8.00000000E-01  1.50000000E+00  1.50000000E+00  8.00000000E-01
  8.00000000E-01  1.50000000E+00  1.50000000E+00  8.00000000E-01  8.00000000E-01
  1.50000000E+00  1.50000000E+00  8.00000000E-01  8.00000000E-01  1.50000000E+00
  1.50000000E+00  8.00000000E-01  8.00000000E-01  1.50000000E+00  1.50000000E+00
  8.00000000E-01  8.00000000E-01  1.50000000E+00  1.50000000E+00  8.00000000E-01
  8.00000000E-01  1.50000000E+00  1.50000000E+00  8.00000000E-01  8.00000000E-01
  1.50000000E+00  1.50000000E+00  8.00000000E-01  8.00000000E-01  1.50000000E+00
  1.50000000E+00  8.00000000E-01  8.00000000E-01  1.50000000E+00  1.50000000E+00
  8.00000000E-01  8.00000000E-01  1.50000000E+00  1.50000000E+00  8.00000000E-01
  8.00000000E-01  1.50000000E+00  1.50000000E+00  8.00000000E-01  8.00000000E-01
  1.50000000E+00  1.50000000E+00  8.00000000E-01  8.00000000E-01  1.50000000E+00
  1.50000000E+00  8.00000000E-01  8.00000000E-01  1.50000000E+00  1.50000000E+00
  8.00000000E-01  8.00000000E-01  1.50000000E+00  1.50000000E+00  8.00000000E-01
  8.00000000E-01  1.50000000E+00  1.50000000E+00  8.00000000E-01  8.00000000E-01
  1.50000000E+00  1.50000000E+00  8.00000000E-01  8.00000000E-01  1.50000000E+00
  1.50000000E+00  8.00000000E-01  8.00000000E-01  1.50000000E+00  1.50000000E+00
  8.00000000E-01  8.00000000E-01  1.50000000E+00  1.50000000E+00  8.00000000E-01
  8.00000000E-01  1.50000000E+00  1.50000000E+00  8.00000000E-01  8.00000000E-01
  1.50000000E+00  1.50000000E+00  8.00000000E-01  8.00000000E-01  1.50000000E+00
  1.50000000E+00  8.00000000E-01  8.00000000E-01  1.50000000E+00  1.50000000E+00
  8.00000000E-01  8.00000000E-01  1.50000000E+00  1.50000000E+00  8.00000000E-01
  8.00000000E-01  1.50000000E+00  1.50000000E+00  8.00000000E-01  8.00000000E-01
  1.50000000E+00  1.50000000E+00  8.00000000E-01  8.00000000E-01  1.50000000E+00
  1.50000000E+00  8.00000000E-01  8.00000000E-01  1.50000000E+00  1.50000000E+00
  8.00000000E-01  8.00000000E-01  1.50000000E+00  1.50000000E+00  8.00000000E-01
  8.00000000E-01  1.50000000E+00  1.50000000E+00  8.00000000E-01  8.00000000E-01
  1.50000000E+00  1.50000000E+00  8.00000000E-01  8.00000000E-01  1.50000000E+00
  1.50000000E+00  8.00000000E-01  8.00000000E-01  1.50000000E+00  1.50000000E+00
  8.00000000E-01  8.00000000E-01  1.50000000E+00  1.50000000E+00  8.00000000E-01
  8.00000000E-01  1.50000000E+00  1.50000000E+00  8.00000000E-01  8.00000000E-01
  1.50000000E+00  1.50000000E+00  8.00000000E-01  8.00000000E-01  1.50000000E+00
  1.50000000E+00  8.00000000E-01  8.00000000E-01  1.50000000E+00  1.50000000E+00
  8.00000000E-01  8.00000000E-01  1.50000000E+00  1.50000000E+00  8.00000000E-01
  8.00000000E-01  1.50000000E+00  1.50000000E+00  8.00000000E-01  8.00000000E-01
  1.50000000E+00  1.50000000E+00  8.00000000E-01  8.00000000E-01  1.50000000E+00
  1.50000000E+00  8.00000000E-01  8.00000000E-01  1.50000000E+00  1.50000000E+00
  8.00000000E-01  8.00000000E-01  1.50000000E+00  1.50000000E+00  8.00000000E-01
  8.00000000E-01  1.50000000E+00  1.50000000E+00  8.00000000E-01  8.00000000E-01
  1.50000000E+00  1.50000000E+00  8.00000000E-01  8.00000000E-01  1.50000000E+00
  1.50000000E+00  8.00000000E-01  8.00000000E-01  1.50000000E+00  1.50000000E+00
  8.00000000E-01  8.00000000E-01  1.50000000E+00  1.50000000E+00  8.00000000E-01
  8.00000000E-01  1.50000000E+00  1.50000000E+00  8.00000000E-01  8.00000000E-01
  1.50000000E+00  1.50000000E+00  8.00000000E-01  8.00000000E-01  1.50000000E+00
  1.50000000E+00  8.00000000E-01  8.00000000E-01  1.50000000E+00  1.50000000E+00
  8.00000000E-01  8.00000000E-01  1.50000000E+00  1.50000000E+00  8.00000000E-01
  8.00000000E-01  1.50000000E+00  1.50000000E+00  8.00000000E-01  8.00000000E-01
  1.50000000E+00  1.50000000E+00  8.00000000E-01  8.00000000E-01  1.50000000E+00
  1.50000000E+00  8.00000000E-01  8.00000000E-01  1.50000000E+00  1.50000000E+00
  8.00000000E-01  8.00000000E-01  1.50000000E+00  1.50000000E+00  8.00000000E-01
  8.00000000E-01  1.50000000E+00  1.50000000E+00  8.00000000E-01  8.00000000E-01
  1.50000000E+00  1.50000000E+00  8.00000000E-01  8.00000000E-01  1.50000000E+00
  1.50000000E+00  8.00000000E-01  8.00000000E-01  1.50000000E+00  1.50000000E+00
  8.00000000E-01  8.00000000E-01  1.50000000E+00  1.50000000E+00  8.00000000E-01
  8.00000000E-01  1.50000000E+00  1.50000000E+00  8.00000000E-01  8.00000000E-01
  1.50000000E+00  1.50000000E+00  8.00000000E-01  8.00000000E-01  1.50000000E+00
  1.50000000E+00  8.00000000E-01  8.00000000E-01  1.50000000E+00  1.50000000E+00
  8.00000000E-01  8.00000000E-01  1.50000000E+00  1.50000000E+00  8.00000000E-01
  8.00000000E-01  1.50000000E+00  1.50000000E+00  8.00000000E-01  8.00000000E-01
  1.50000000E+00  1.50000000E+00  8.00000000E-01  8.00000000E-01  1.50000000E+00
  1.50000000E+00  8.00000000E-01  8.00000000E-01  1.50000000E+00  1.50000000E+00
  8.00000000E-01  8.00000000E-01  1.50000000E+00  1.50000000E+00  8.00000000E-01
  8.00000000E-01  1.50000000E+00  1.50000000E+00  8.00000000E-01  8.00000000E-01
  1.50000000E+00
%FLAG SCREEN
%FORMAT(5E16.8)
  7.90000000E-01  8.50000000E-01  8.50000000E-01  8.50000000E-01  7.20000000E-01
  8.50000000E-01  7.20000000E-01  8.50000000E-01  8.50000000E-01  8.50000000E-01
  8.50000000E-01  7.20000000E-01  8.50000000E-01  7.90000000E-01  8.50000000E-01
  7.20000000E-01  8.50000000E-01  7.20000000E-01  8.50000000E-01  8.50000000E-01
  7.20000000E-01  8.50000000E-01  7.20000000E-01  8.50000000E-01  8.50000000E-01
  8.50000000E-01  7.20000000E-01  8.50000000E-01  8.50000000E-01  8.50000000E-01
  7.20000000E-01  8.50000000E-01  7.90000000E-01  8.50000000E-01  7.20000000E-01
  8.50000000E-01  7.20000000E-01  8.50000000E-01  8.50000000E-01  8.50000000E-01
  7.20000000E-01  8.50000000E-01  7.90000000E-01  8.50000000E-01  7.20000000E-01
  8.50000000E-01  7.20000000E-01  8.50000000E-01  8.50000000E-01  7.20000000E-01
  7.90000000E-01  7.20000000E-01  8.50000000E-01  7.90000000E-01  8.50000000E-01
  7.20000000E-01  8.50000000E-01  7.20000000E-01  8.50000000E-01  7.90000000E-01
  8.50000000E-01  7.20000000E-01  8.50000000E-01  7.20000000E-01  8.50000000E-01
  8.50000000E-01  8.50000000E-01  8.50000000E-01  7.20000000E-01  8.50000000E-01
  8.50000000E-01  7.90000000E-01  8.50000000E-01  8.50000000E-01  8.50000000E-01
  7.20000000E-01  8.50000000E-01  7.20000000E-01  8.50000000E-01  8.50000000E-01
  7.20000000E-01  8.50000000E-01  7.20000000E-01  8.50000000E-01  8.50000000E-01
  8.50000000E-01  7.20000000E-01  8.50000000E-01  8.50000000E-01  8.50000000E-01
  7.20000000E-01  8.50000000E-01  7.90000000E-01  8.50000000E-01  7.20000000E-01
  8.50000000E-01  7.20000000E-01  8.50000000E-01  7.20000000E-01  8.50000000E-01
  8.50000000E-01  8.50000000E-01  7.20000000E-01  8.50000000E-01  8.50000000E-01
  8.50000000E-01  7.20000000E-01  8.50000000E-01  7.90000000E-01  8.50000000E-01
  7.20000000E-01  8.50000000E-01  7.20000000E-01  8.50000000E-01  7.20000000E-01
  8.50000000E-01  8.50000000E-01  8.50000000E-01  8.50000000E-01  8.50000000E-01
  7.20000000E-01  8.50000000E-01  7.90000000E-01  8.50000000E-01  7.20000000E-01
  8.50000000E-01  7.20000000E-01  8.50000000E-01  8.50000000E-01  7.20000000E-01
  8.50000000E-01  8.50000000E-01  7.20000000E-01  8.50000000E-01  8.50000000E-01
  7.20000000E-01  8.50000000E-01  8.50000000E-01  7.90000000E-01  8.50000000E-01
  8.50000000E-01  8.50000000E-01  7.20000000E-01  8.50000000E-01  7.90000000E-01
  8.50000000E-01  7.20000000E-01  8.50000000E-01  7.20000000E-01  8.50000000E-01
  8.50000000E-01  7.20000000E-01  8.50000000E-01  7.20000000E-01  8.50000000E-01
  8.50000000E-01  8.50000000E-01  7.20000000E-01  8.50000000E-01  8.50000000E-01
  8.50000000E-01  7.20000000E-01  8.50000000E-01  8.50000000E-01  7.20000000E-01
  9.60000000E-01  7.20000000E-01  7.20000000E-01  7.20000000E-01  7.20000000E-01
  7.20000000E-01  7.20000000E-01  7.20000000E-01  9.60000000E-01  8.50000000E-01
  8.50000000E-01  7.20000000E-01  7.90000000E-01  7.20000000E-01  8.50000000E-01
  7.90000000E-01  8.50000000E-01  8.50000000E-01  7.20000000E-01  7.20000000E-01
  7.20000000E-01  7.20000000E-01  7.20000000E-01  7.20000000E-01  8.00000000E-01
  8.50000000E-01  8.50000000E-01  8.50000000E-01  8.50000000E-01  8.50000000E-01
  8.50000000E-01  8.50000000E-01  8.50000000E-01  8.50000000E-01  8.50000000E-01
  8.50000000E-01  8.50000000E-01  8.50000000E-01  8.00000000E-01  8.00000000E-01
  8.00000000E-01  8.00000000E-01  8.00000000E-01  8.00000000E-01  8.00000000E-01
  8.00000000E-01  8.00000000E-01  8.00000000E-01  8.00000000E-01  8.00000000E-01
  8.00000000E-01  8.00000000E-01  8.00000000E-01  8.50000000E-01  8.50000000E-01
  8.50000000E-01  8.00000000E-01  8.50000000E-01  8.50000000E-01  8.50000000E-01
  8.00000000E-01  8.50000000E-01  8.50000000E-01  8.50000000E-01  8.00000000E-01
  8.50000000E-01  8.50000000E-01  8.50000000E-01  8.00000000E-01  8.50000000E-01
  8.50000000E-01  8.50000000E-01  8.00000000E-01  8.50000000E-01  8.50000000E-01
  8.50000000E-01  8.00000000E-01  8.50000000E-01  8.50000000E-01  8.50000000E-01
  8.00000000E-01  8.50000000E-01  8.50000000E-01  8.50000000E-01  8.00000000E-01
  8.50000000E-01  8.50000000E-01  8.50000000E-01  8.00000000E-01  8.50000000E-01
  8.50000000E-01  8.50000000E-01  8.00000000E-01  8.50000000E-01  8.50000000E-01
  8.50000000E-01  8.00000000E-01  8.50000000E-01  8.50000000E-01  8.50000000E-01
  8.00000000E-01  8.50000000E-01  8.50000000E-01  8.50000000E-01  8.00000000E-01
  8.50000000E-01  8.50000000E-01  8.50000000E-01  8.00000000E-01  8.50000000E-01
  8.50000000E-01  8.50000000E-01  8.00000000E-01  8.50000000E-01  8.50000000E-01
  8.50000000E-01  8.00000000E-01  8.50000000E-01  8.50000000E-01  8.50000000E-01
  8.00000000E-01  8.50000000E-01  8.50000000E-01  8.50000000E-01  8.00000000E-01
  8.50000000E-01  8.50000000E-01  8.50000000E-01  8.00000000E-01  8.50000000E-01
  8.50000000E-01  8.50000000E-01  8.00000000E-01  8.50000000E-01  8.50000000E-01
  8.50000000E-01  8.00000000E-01  8.50000000E-01  8.50000000E-01  8.50000000E-01
  8.00000000E-01  8.50000000E-01  8.50000000E-01  8.50000000E-01  8.00000000E-01
  8.50000000E-01  8.50000000E-01  8.50000000E-01  8.00000000E-01  8.50000000E-01
  8.50000000E-01  8.50000000E-01  8.00000000E-01  8.50000000E-01  8.50000000E-01
  8.50000000E-01  8.00000000E-01  8.50000000E-01  8.50000000E-01  8.50000000E-01
  8.00000000E-01  8.50000000E-01  8.50000000E-01  8.50000000E-01  8.00000000E-01
  8.50000000E-01  8.50000000E-01  8.50000000E-01  8.00000000E-01  8.50000000E-01
  8.50000000E-01  8.50000000E-01  8.00000000E-01  8.50000000E-01  8.50000000E-01
  8.50000000E-01  8.00000000E-01  8.50000000E-01  8.50000000E-01  8.50000000E-01
  8.00000000E-01  8.50000000E-01  8.50000000E-01  8.50000000E-01  8.00000000E-01
  8.50000000E-01  8.50000000E-01  8.50000000E-01  8.00000000E-01  8.50000000E-01
  8.50000000E-01  8.50000000E-01  8.00000000E-01  8.50000000E-01  8.50000000E-01
  8.50000000E-01  8.00000000E-01  8.50000000E-01  8.50000000E-01  8.50000000E-01
  8.00000000E-01  8.50000000E-01  8.50000000E-01  8.50000000E-01  8.00000000E-01
  8.50000000E-01  8.50000000E-01  8.50000000E-01  8.00000000E-01  8.50000000E-01
  8.50000000E-01  8.50000000E-01  8.00000000E-01  8.50000000E-01  8.50000000E-01
  8.50000000E-01  8.00000000E-01  8.50000000E-01  8.50000000E-01  8.50000000E-01
  8.00000000E-01  8.50000000E-01  8.50000000E-01  8.50000000E-01  8.00000000E-01
  8.50000000E-01  8.50000000E-01  8.50000000E-01  8.00000000E-01  8.50000000E-01
  8.50000000E-01  8.50000000E-01  8.00000000E-01  8.50000000E-01  8.50000000E-01
  8.50000000E-01  8.00000000E-01  8.50000000E-01  8.50000000E-01  8.50000000E-01
  8.00000000E-01  8.50000000E-01  8.50000000E-01  8.50000000E-01  8.00000000E-01
  8.50000000E-01  8.50000000E-01  8.50000000E-01  8.00000000E-01  8.50000000E-01
  8.50000000E-01  8.50000000E-01  8.00000000E-01  8.50000000E-01  8.50000000E-01
  8.50000000E-01  8.00000000E-01  8.50000000E-01  8.50000000E-01  8.50000000E-01
  8.00000000E-01  8.50000000E-01  8.50000000E-01  8.50000000E-01  8.00000000E-01
  8.50000000E-01  8.50000000E-01  8.50000000E-01  8.00000000E-01  8.50000000E-01
  8.50000000E-01  8.50000000E-01  8.00000000E-01  8.50000000E-01  8.50000000E-01
  8.50000000E-01  8.00000000E-01  8.50000000E-01  8.50000000E-01  8.50000000E-01
  8.00000000E-01  8.50000000E-01  8.50000000E-01  8.50000000E-01  8.00000000E-01
  8.50000000E-01  8.50000000E-01  8.50000000E-01  8.00000000E-01  8.50000000E-01
  8.50000000E-01  8.50000000E-01  8.00000000E-01  8.50000000E-01  8.50000000E-01
  8.50000000E-01  8.00000000E-01  8.50000000E-01  8.50000000E-01  8.50000000E-01
  8.00000000E-01  8.50000000E-01  8.50000000E-01  8.50000000E-01  8.00000000E-01
  8.50000000E-01  8.50000000E-01  8.50000000E-01  8.00000000E-01  8.50000000E-01
  8.50000000E-01  8.50000000E-01  8.00000000E-01  8.50000000E-01  8.50000000E-01
  8.50000000E-01  8.00000000E-01  8.50000000E-01  8.50000000E-01  8.50000000E-01
  8.00000000E-01  8.50000000E-01  8.50000000E-01  8.50000000E-01  8.00000000E-01
  8.50000000E-01  8.50000000E-01  8.50000000E-01  8.00000000E-01  8.50000000E-01
  8.50000000E-01  8.50000000E-01  8.00000000E-01  8.50000000E-01  8.50000000E-01
  8.50000000E-01  8.00000000E-01  8.50000000E-01  8.50000000E-01  8.50000000E-01
  8.00000000E-01  8.50000000E-01  8.50000000E-01  8.50000000E-01  8.00000000E-01
  8.50000000E-01  8.50000000E-01  8.50000000E-01  8.00000000E-01  8.50000000E-01
  8.50000000E-01  8.50000000E-01  8.00000000E-01  8.50000000E-01  8.50000000E-01
  8.50000000E-01  8.00000000E-01  8.50000000E-01  8.50000000E-01  8.50000000E-01
  8.00000000E-01  8.50000000E-01  8.50000000E-01  8.50000000E-01  8.00000000E-01
  8.50000000E-01  8.50000000E-01  8.50000000E-01  8.00000000E-01  8.50000000E-01
  8.50000000E-01  8.50000000E-01  8.00000000E-01  8.50000000E-01  8.50000000E-01
  8.50000000E-01  8.00000000E-01  8.50000000E-01  8.50000000E-01  8.50000000E-01
  8.00000000E-01  8.50000000E-01  8.50000000E-01  8.50000000E-01  8.00000000E-01
  8.50000000E-01  8.50000000E-01  8.50000000E-01  8.00000000E-01  8.50000000E-01
  8.50000000E-01  8.50000000E-01  8.00000000E-01  8.50000000E-01  8.50000000E-01
  8.50000000E-01  8.00000000E-01  8.50000000E-01  8.50000000E-01  8.50000000E-01
  8.00000000E-01  8.50000000E-01  8.50000000E-01  8.50000000E-01  8.00000000E-01
  8.50000000E-01  8.50000000E-01  8.50000000E-01  8.00000000E-01  8.50000000E-01
  8.50000000E-01  8.50000000E-01  8.00000000E-01  8.50000000E-01  8.50000000E-01
  8.50000000E-01  8.00000000E-01  8.50000000E-01  8.50000000E-01  8.50000000E-01
  8.00000000E-01  8.50000000E-01  8.50000000E-01  8.50000000E-01  8.00000000E-01
  8.50000000E-01  8.50000000E-01  8.50000000E-01  8.00000000E-01  8.50000000E-01
  8.50000000E-01  8.50000000E-01  8.00000000E-01  8.50000000E-01  8.50000000E-01
  8.50000000E-01  8.00000000E-01  8.50000000E-01  8.50000000E-01  8.50000000E-01
  8.00000000E-01  8.50000000E-01  8.50000000E-01  8.50000000E-01  8.00000000E-01
  8.50000000E-01  8.50000000E-01  8.50000000E-01  8.00000000E-01  8.50000000E-01
  8.50000000E-01  8.50000000E-01  8.00000000E-01  8.50000000E-01  8.50000000E-01
  8.50000000E-01  8.00000000E-01  8.50000000E-01  8.50000000E-01  8.50000000E-01
  8.00000000E-01  8.50000000E-01  8.50000000E-01  8.50000000E-01  8.00000000E-01
  8.50000000E-01  8.50000000E-01  8.50000000E-01  8.00000000E-01  8.50000000E-01
  8.50000000E-01  8.50000000E-01  8.00000000E-01  8.50000000E-01  8.50000000E-01
  8.50000000E-01  8.00000000E-01  8.50000000E-01  8.50000000E-01  8.50000000E-01
  8.00000000E-01  8.50000000E-01  8.50000000E-01  8.50000000E-01  8.00000000E-01
  8.50000000E-01  8.50000000E-01  8.50000000E-01  8.00000000E-01  8.50000000E-01
  8.50000000E-01  8.50000000E-01  8.00000000E-01  8.50000000E-01  8.50000000E-01
  8.50000000E-01  8.00000000E-01  8.50000000E-01  8.50000000E-01  8.50000000E-01
  8.00000000E-01  8.50000000E-01  8.50000000E-01  8.50000000E-01  8.00000000E-01
  8.50000000E-01  8.50000000E-01  8.50000000E-01  8.00000000E-01  8.50000000E-01
  8.50000000E-01  8.50000000E-01  8.00000000E-01  8.50000000E-01  8.50000000E-01
  8.50000000E-01  8.00000000E-01  8.50000000E-01  8.50000000E-01  8.50000000E-01
  8.00000000E-01  8.50000000E-01  8.50000000E-01  8.50000000E-01  8.00000000E-01
  8.50000000E-01  8.50000000E-01  8.50000000E-01  8.00000000E-01  8.50000000E-01
  8.50000000E-01  8.50000000E-01  8.00000000E-01  8.50000000E-01  8.50000000E-01
  8.50000000E-01  8.00000000E-01  8.50000000E-01  8.50000000E-01  8.50000000E-01
  8.00000000E-01  8.50000000E-01  8.50000000E-01  8.50000000E-01  8.00000000E-01
  8.50000000E-01  8.50000000E-01  8.50000000E-01  8.00000000E-01  8.50000000E-01
  8.50000000E-01  8.50000000E-01  8.00000000E-01  8.50000000E-01  8.50000000E-01
  8.50000000E-01  8.00000000E-01  8.50000000E-01  8.50000000E-01  8.50000000E-01
  8.00000000E-01  8.50000000E-01  8.50000000E-01  8.50000000E-01  8.00000000E-01
  8.50000000E-01  8.50000000E-01  8.50000000E-01  8.00000000E-01  8.50000000E-01
  8.50000000E-01  8.50000000E-01  8.00000000E-01  8.50000000E-01  8.50000000E-01
  8.50000000E-01  8.00000000E-01  8.50000000E-01  8.50000000E-01  8.50000000E-01
  8.00000000E-01  8.50000000E-01  8.50000000E-01  8.50000000E-01  8.00000000E-01
  8.50000000E-01  8.50000000E-01  8.50000000E-01  8.00000000E-01  8.50000000E-01
  8.50000000E-01  8.50000000E-01  8.00000000E-01  8.50000000E-01  8.50000000E-01
  8.50000000E-01  8.00000000E-01  8.50000000E-01  8.50000000E-01  8.50000000E-01
  8.00000000E-01  8.50000000E-01  8.50000000E-01  8.50000000E-01  8.00000000E-01
  8.50000000E-01  8.50000000E-01  8.50000000E-01  8.00000000E-01  8.50000000E-01
  8.50000000E-01  8.50000000E-01  8.00000000E-01  8.50000000E-01  8.50000000E-01
  8.50000000E-01  8.00000000E-01  8.50000000E-01  8.50000000E-01  8.50000000E-01
  8.00000000E-01  8.50000000E-01  8.50000000E-01  8.50000000E-01  8.00000000E-01
  8.50000000E-01  8.50000000E-01  8.50000000E-01  8.00000000E-01  8.50000000E-01
  8.50000000E-01  8.50000000E-01  8.00000000E-01  8.50000000E-01  8.50000000E-01
  8.50000000E-01  8.00000000E-01  8.50000000E-01  8.50000000E-01  8.50000000E-01
  8.00000000E-01  8.50000000E-01  8.50000000E-01  8.50000000E-01  8.00000000E-01
  8.50000000E-01  8.50000000E-01  8.50000000E-01  8.00000000E-01  8.50000000E-01
  8.50000000E-01  8.50000000E-01  8.00000000E-01  8.50000000E-01  8.50000000E-01
  8.50000000E-01  8.00000000E-01  8.50000000E-01  8.50000000E-01  8.50000000E-01
  8.00000000E-01  8.50000000E-01  8.50000000E-01  8.50000000E-01  8.00000000E-01
  8.50000000E-01  8.50000000E-01  8.50000000E-01  8.00000000E-01  8.50000000E-01
  8.50000000E-01  8.50000000E-01  8.00000000E-01  8.50000000E-01  8.50000000E-01
  8.50000000E-01  8.00000000E-01  8.50000000E-01  8.50000000E-01  8.50000000E-01
  8.00000000E-01  8.50000000E-01  8.50000000E-01  8.50000000E-01  8.00000000E-01
  8.50000000E-01  8.50000000E-01  8.50000000E-01  8.00000000E-01  8.50000000E-01
  8.50000000E-01  8.50000000E-01  8.00000000E-01  8.50000000E-01  8.50000000E-01
  8.50000000E-01  8.00000000E-01  8.50000000E-01  8.50000000E-01  8.50000000E-01
  8.00000000E-01  8.50000000E-01  8.50000000E-01  8.50000000E-01  8.00000000E-01
  8.50000000E-01  8.50000000E-01  8.50000000E-01  8.00000000E-01  8.50000000E-01
  8.50000000E-01  8.50000000E-01  8.00000000E-01  8.50000000E-01  8.50000000E-01
  8.50000000E-01  8.00000000E-01  8.50000000E-01  8.50000000E-01  8.50000000E-01
  8.00000000E-01  8.50000000E-01  8.50000000E-01  8.50000000E-01  8.00000000E-01
  8.50000000E-01  8.50000000E-01  8.50000000E-01  8.00000000E-01  8.50000000E-01
  8.50000000E-01  8.50000000E-01  8.00000000E-01  8.50000000E-01  8.50000000E-01
  8.50000000E-01  8.00000000E-01  8.50000000E-01  8.50000000E-01  8.50000000E-01
  8.00000000E-01  8.50000000E-01  8.50000000E-01  8.50000000E-01  8.00000000E-01
  8.50000000E-01  8.50000000E-01  8.50000000E-01  8.00000000E-01  8.50000000E-01
  8.50000000E-01  8.50000000E-01  8.00000000E-01  8.50000000E-01  8.50000000E-01
  8.50000000E-01  8.00000000E-01  8.50000000E-01  8.50000000E-01  8.50000000E-01
  8.00000000E-01  8.50000000E-01  8.50000000E-01  8.50000000E-01  8.00000000E-01
  8.50000000E-01  8.50000000E-01  8.50000000E-01  8.00000000E-01  8.50000000E-01
  8.50000000E-01  8.50000000E-01  8.00000000E-01  8.50000000E-01  8.50000000E-01
  8.50000000E-01  8.00000000E-01  8.50000000E-01  8.50000000E-01  8.50000000E-01
  8.00000000E-01  8.50000000E-01  8.50000000E-01  8.50000000E-01  8.00000000E-01
  8.50000000E-01  8.50000000E-01  8.50000000E-01  8.00000000E-01  8.50000000E-01
  8.50000000E-01  8.50000000E-01  8.00000000E-01  8.50000000E-01  8.50000000E-01
  8.50000000E-01  8.00000000E-01  8.50000000E-01  8.50000000E-01  8.50000000E-01
  8.00000000E-01  8.50000000E-01  8.50000000E-01  8.50000000E-01  8.00000000E-01
  8.50000000E-01  8.50000000E-01  8.50000000E-01  8.00000000E-01  8.50000000E-01
  8.50000000E-01  8.50000000E-01  8.00000000E-01  8.50000000E-01  8.50000000E-01
  8.50000000E-01  8.00000000E-01  8.50000000E-01  8.50000000E-01  8.50000000E-01
  8.00000000E-01  8.50000000E-01  8.50000000E-01  8.50000000E-01  8.00000000E-01
  8.50000000E-01  8.50000000E-01  8.50000000E-01  8.00000000E-01  8.50000000E-01
  8.50000000E-01  8.50000000E-01  8.00000000E-01  8.50000000E-01  8.50000000E-01
  8.50000000E-01  8.00000000E-01  8.50000000E-01  8.50000000E-01  8.50000000E-01
  8.00000000E-01  8.50000000E-01  8.50000000E-01  8.50000000E-01  8.00000000E-01
  8.50000000E-01  8.50000000E-01  8.50000000E-01  8.00000000E-01  8.50000000E-01
  8.50000000E-01  8.50000000E-01  8.00000000E-01  8.50000000E-01  8.50000000E-01
  8.50000000E-01  8.00000000E-01  8.50000000E-01  8.50000000E-01  8.50000000E-01
  8.00000000E-01  8.50000000E-01  8.50000000E-01  8.50000000E-01  8.00000000E-01
  8.50000000E-01  8.50000000E-01  8.50000000E-01  8.00000000E-01  8.50000000E-01
  8.50000000E-01  8.50000000E-01  8.00000000E-01  8.50000000E-01  8.50000000E-01
  8.50000000E-01  8.00000000E-01  8.50000000E-01  8.50000000E-01  8.50000000E-01
  8.00000000E-01  8.50000000E-01  8.50000000E-01  8.50000000E-01  8.00000000E-01
  8.50000000E-01  8.50000000E-01  8.50000000E-01  8.00000000E-01  8.50000000E-01
  8.50000000E-01  8.50000000E-01  8.00000000E-01  8.50000000E-01  8.50000000E-01
  8.50000000E-01  8.00000000E-01  8.50000000E-01  8.50000000E-01  8.50000000E-01
  8.00000000E-01  8.50000000E-01  8.50000000E-01  8.50000000E-01  8.00000000E-01
  8.50000000E-01  8.50000000E-01  8.50000000E-01  8.00000000E-01  8.50000000E-01
  8.50000000E-01  8.50000000E-01  8.00000000E-01  8.50000000E-01  8.50000000E-01
  8.50000000E-01  8.00000000E-01  8.50000000E-01  8.50000000E-01  8.50000000E-01
  8.00000000E-01  8.50000000E-01  8.50000000E-01  8.50000000E-01  8.00000000E-01
  8.50000000E-01  8.50000000E-01  8.50000000E-01  8.00000000E-01  8.50000000E-01
  8.50000000E-01  8.50000000E-01  8.00000000E-01  8.50000000E-01  8.50000000E-01
  8.50000000E-01  8.00000000E-01  8.50000000E-01  8.50000000E-01  8.50000000E-01
  8.00000000E-01  8.50000000E-01  8.50000000E-01  8.50000000E-01  8.00000000E-01
  8.50000000E-01  8.50000000E-01  8.50000000E-01  8.00000000E-01  8.50000000E-01
  8.50000000E-01  8.50000000E-01  8.00000000E-01  8.50000000E-01  8.50000000E-01
  8.50000000E-01  8.00000000E-01  8.50000000E-01  8.50000000E-01  8.50000000E-01
  8.00000000E-01  8.50000000E-01  8.50000000E-01  8.50000000E-01  8.00000000E-01
  8.50000000E-01  8.50000000E-01  8.50000000E-01  8.00000000E-01  8.50000000E-01
  8.50000000E-01  8.50000000E-01  8.00000000E-01  8.50000000E-01  8.50000000E-01
  8.50000000E-01  8.00000000E-01  8.50000000E-01  8.50000000E-01  8.50000000E-01
  8.00000000E-01  8.50000000E-01  8.50000000E-01  8.50000000E-01  8.00000000E-01
  8.50000000E-01  8.50000000E-01  8.50000000E-01  8.00000000E-01  8.50000000E-01
  8.50000000E-01  8.50000000E-01  8.00000000E-01  8.50000000E-01  8.50000000E-01
  8.50000000E-01  8.00000000E-01  8.50000000E-01  8.50000000E-01  8.50000000E-01
  8.00000000E-01  8.50000000E-01  8.50000000E-01  8.50000000E-01  8.00000000E-01
  8.50000000E-01  8.50000000E-01  8.50000000E-01  8.00000000E-01  8.50000000E-01
  8.50000000E-01  8.50000000E-01  8.00000000E-01  8.50000000E-01  8.50000000E-01
  8.50000000E-01  8.00000000E-01  8.50000000E-01  8.50000000E-01  8.50000000E-01
  8.00000000E-01  8.50000000E-01  8.50000000E-01  8.50000000E-01  8.00000000E-01
  8.50000000E-01  8.50000000E-01  8.50000000E-01  8.00000000E-01  8.50000000E-01
  8.50000000E-01  8.50000000E-01  8.00000000E-01  8.50000000E-01  8.50000000E-01
  8.50000000E-01  8.00000000E-01  8.50000000E-01  8.50000000E-01  8.50000000E-01
  8.00000000E-01  8.50000000E-01  8.50000000E-01  8.50000000E-01  8.00000000E-01
  8.50000000E-01  8.50000000E-01  8.50000000E-01  8.00000000E-01  8.50000000E-01
  8.50000000E-01  8.50000000E-01  8.00000000E-01  8.50000000E-01  8.50000000E-01
  8.50000000E-01  8.00000000E-01  8.50000000E-01  8.50000000E-01  8.50000000E-01
  8.00000000E-01  8.50000000E-01  8.50000000E-01  8.50000000E-01  8.00000000E-01
  8.50000000E-01  8.50000000E-01  8.50000000E-01  8.00000000E-01  8.50000000E-01
  8.50000000E-01  8.50000000E-01  8.00000000E-01  8.50000000E-01  8.50000000E-01
  8.50000000E-01  8.00000000E-01  8.50000000E-01  8.50000000E-01  8.50000000E-01
  8.00000000E-01  8.50000000E-01  8.50000000E-01  8.50000000E-01  8.00000000E-01
  8.50000000E-01  8.50000000E-01  8.50000000E-01  8.00000000E-01  8.50000000E-01
  8.50000000E-01  8.50000000E-01  8.00000000E-01  8.50000000E-01  8.50000000E-01
  8.50000000E-01  8.00000000E-01  8.50000000E-01  8.50000000E-01  8.50000000E-01
  8.00000000E-01  8.50000000E-01  8.50000000E-01  8.50000000E-01  8.00000000E-01
  8.50000000E-01  8.50000000E-01  8.50000000E-01  8.00000000E-01  8.50000000E-01
  8.50000000E-01  8.50000000E-01  8.00000000E-01  8.50000000E-01  8.50000000E-01
  8.50000000E-01  8.00000000E-01  8.50000000E-01  8.50000000E-01  8.50000000E-01
  8.00000000E-01  8.50000000E-01  8.50000000E-01  8.50000000E-01  8.00000000E-01
  8.50000000E-01  8.50000000E-01  8.50000000E-01  8.00000000E-01  8.50000000E-01
  8.50000000E-01  8.50000000E-01  8.00000000E-01  8.50000000E-01  8.50000000E-01
  8.50000000E-01  8.00000000E-01  8.50000000E-01  8.50000000E-01  8.50000000E-01
  8.00000000E-01  8.50000000E-01  8.50000000E-01  8.50000000E-01  8.00000000E-01
  8.50000000E-01  8.50000000E-01  8.50000000E-01  8.00000000E-01  8.50000000E-01
  8.50000000E-01  8.50000000E-01  8.00000000E-01  8.50000000E-01  8.50000000E-01
  8.50000000E-01  8.00000000E-01  8.50000000E-01  8.50000000E-01  8.50000000E-01
  8.00000000E-01  8.50000000E-01  8.50000000E-01  8.50000000E-01  8.00000000E-01
  8.50000000E-01  8.50000000E-01  8.50000000E-01  8.00000000E-01  8.50000000E-01
  8.50000000E-01  8.50000000E-01  8.00000000E-01  8.50000000E-01  8.50000000E-01
  8.50000000E-01  8.00000000E-01  8.50000000E-01  8.50000000E-01  8.50000000E-01
  8.00000000E-01  8.50000000E-01  8.50000000E-01  8.50000000E-01  8.00000000E-01
  8.50000000E-01  8.50000000E-01  8.50000000E-01  8.00000000E-01  8.50000000E-01
  8.50000000E-01  8.50000000E-01  8.00000000E-01  8.50000000E-01  8.50000000E-01
  8.50000000E-01  8.00000000E-01  8.50000000E-01  8.50000000E-01  8.50000000E-01
  8.00000000E-01  8.50000000E-01  8.50000000E-01  8.50000000E-01  8.00000000E-01
  8.50000000E-01  8.50000000E-01  8.50000000E-01  8.00000000E-01  8.50000000E-01
  8.50000000E-01  8.50000000E-01  8.00000000E-01  8.50000000E-01  8.50000000E-01
  8.50000000E-01  8.00000000E-01  8.50000000E-01  8.50000000E-01  8.50000000E-01
  8.00000000E-01  8.50000000E-01  8.50000000E-01  8.50000000E-01  8.00000000E-01
  8.50000000E-01  8.50000000E-01  8.50000000E-01  8.00000000E-01  8.50000000E-01
  8.50000000E-01  8.50000000E-01  8.00000000E-01  8.50000000E-01  8.50000000E-01
  8.50000000E-01  8.00000000E-01  8.50000000E-01  8.50000000E-01  8.50000000E-01
  8.00000000E-01  8.50000000E-01  8.50000000E-01  8.50000000E-01  8.00000000E-01
  8.50000000E-01  8.50000000E-01  8.50000000E-01  8.00000000E-01  8.50000000E-01
  8.50000000E-01  8.50000000E-01  8.00000000E-01  8.50000000E-01  8.50000000E-01
  8.50000000E-01  8.00000000E-01  8.50000000E-01  8.50000000E-01  8.50000000E-01
  8.00000000E-01  8.50000000E-01  8.50000000E-01  8.50000000E-01  8.00000000E-01
  8.50000000E-01  8.50000000E-01  8.50000000E-01  8.00000000E-01  8.50000000E-01
  8.50000000E-01  8.50000000E-01  8.00000000E-01  8.50000000E-01  8.50000000E-01
  8.50000000E-01  8.00000000E-01  8.50000000E-01  8.50000000E-01  8.50000000E-01
  8.00000000E-01  8.50000000E-01  8.50000000E-01  8.50000000E-01  8.00000000E-01
  8.50000000E-01  8.50000000E-01  8.50000000E-01  8.00000000E-01  8.50000000E-01
  8.50000000E-01  8.50000000E-01  8.00000000E-01  8.50000000E-01  8.50000000E-01
  8.50000000E-01  8.00000000E-01  8.50000000E-01  8.50000000E-01  8.50000000E-01
  8.00000000E-01  8.50000000E-01  8.50000000E-01  8.50000000E-01  8.00000000E-01
  8.50000000E-01  8.50000000E-01  8.50000000E-01  8.00000000E-01  8.50000000E-01
  8.50000000E-01  8.50000000E-01  8.00000000E-01  8.50000000E-01  8.50000000E-01
  8.50000000E-01  8.00000000E-01  8.50000000E-01  8.50000000E-01  8.50000000E-01
  8.00000000E-01  8.50000000E-01  8.50000000E-01  8.50000000E-01  8.00000000E-01
  8.50000000E-01  8.50000000E-01  8.50000000E-01  8.00000000E-01  8.50000000E-01
  8.50000000E-01  8.50000000E-01  8.00000000E-01  8.50000000E-01  8.50000000E-01
  8.50000000E-01  8.00000000E-01  8.50000000E-01  8.50000000E-01  8.50000000E-01
  8.00000000E-01  8.50000000E-01  8.50000000E-01  8.50000000E-01  8.00000000E-01
  8.50000000E-01  8.50000000E-01  8.50000000E-01  8.00000000E-01  8.50000000E-01
  8.50000000E-01  8.50000000E-01  8.00000000E-01  8.50000000E-01  8.50000000E-01
  8.50000000E-01  8.00000000E-01  8.50000000E-01  8.50000000E-01  8.50000000E-01
  8.00000000E-01  8.50000000E-01  8.50000000E-01  8.50000000E-01  8.00000000E-01
  8.50000000E-01  8.50000000E-01  8.50000000E-01  8.00000000E-01  8.50000000E-01
  8.50000000E-01  8.50000000E-01  8.00000000E-01  8.50000000E-01  8.50000000E-01
  8.50000000E-01  8.00000000E-01  8.50000000E-01  8.50000000E-01  8.50000000E-01
  8.00000000E-01  8.50000000E-01  8.50000000E-01  8.50000000E-01  8.00000000E-01
  8.50000000E-01  8.50000000E-01  8.50000000E-01  8.00000000E-01  8.50000000E-01
  8.50000000E-01  8.50000000E-01  8.00000000E-01  8.50000000E-01  8.50000000E-01
  8.50000000E-01  8.00000000E-01  8.50000000E-01  8.50000000E-01  8.50000000E-01
  8.00000000E-01  8.50000000E-01  8.50000000E-01  8.50000000E-01  8.00000000E-01
  8.50000000E-01  8.50000000E-01  8.50000000E-01  8.00000000E-01  8.50000000E-01
  8.50000000E-01  8.50000000E-01  8.00000000E-01  8.50000000E-01  8.50000000E-01
  8.50000000E-01  8.00000000E-01  8.50000000E-01  8.50000000E-01  8.50000000E-01
  8.00000000E-01  8.50000000E-01  8.50000000E-01  8.50000000E-01  8.00000000E-01
  8.50000000E-01  8.50000000E-01  8.50000000E-01  8.00000000E-01  8.50000000E-01
  8.50000000E-01  8.50000000E-01  8.00000000E-01  8.50000000E-01  8.50000000E-01
  8.50000000E-01  8.00000000E-01  8.50000000E-01  8.50000000E-01  8.50000000E-01
  8.00000000E-01  8.50000000E-01  8.50000000E-01  8.50000000E-01  8.00000000E-01
  8.50000000E-01  8.50000000E-01  8.50000000E-01  8.00000000E-01  8.50000000E-01
  8.50000000E-01  8.50000000E-01  8.00000000E-01  8.50000000E-01  8.50000000E-01
  8.50000000E-01  8.00000000E-01  8.50000000E-01  8.50000000E-01  8.50000000E-01
  8.00000000E-01  8.50000000E-01  8.50000000E-01  8.50000000E-01  8.00000000E-01
  8.50000000E-01  8.50000000E-01  8.50000000E-01  8.00000000E-01  8.50000000E-01
  8.50000000E-01  8.50000000E-01  8.00000000E-01  8.50000000E-01  8.50000000E-01
  8.50000000E-01  8.00000000E-01  8.50000000E-01  8.50000000E-01  8.50000000E-01
  8.00000000E-01  8.50000000E-01  8.50000000E-01  8.50000000E-01  8.00000000E-01
  8.50000000E-01  8.50000000E-01  8.50000000E-01  8.00000000E-01  8.50000000E-01
  8.50000000E-01  8.50000000E-01  8.00000000E-01  8.50000000E-01  8.50000000E-01
  8.50000000E-01  8.00000000E-01  8.50000000E-01  8.50000000E-01  8.50000000E-01
  8.00000000E-01  8.50000000E-01  8.50000000E-01  8.50000000E-01  8.00000000E-01
  8.50000000E-01  8.50000000E-01  8.50000000E-01  8.00000000E-01  8.50000000E-01
  8.50000000E-01  8.50000000E-01  8.00000000E-01  8.50000000E-01  8.50000000E-01
  8.50000000E-01  8.00000000E-01  8.50000000E-01  8.50000000E-01  8.50000000E-01
  8.00000000E-01  8.50000000E-01  8.50000000E-01  8.50000000E-01  8.00000000E-01
  8.50000000E-01  8.50000000E-01  8.50000000E-01  8.00000000E-01  8.50000000E-01
  8.50000000E-01  8.50000000E-01  8.00000000E-01  8.50000000E-01  8.50000000E-01
  8.50000000E-01  8.00000000E-01  8.50000000E-01  8.50000000E-01  8.50000000E-01
  8.00000000E-01  8.50000000E-01  8.50000000E-01  8.50000000E-01  8.00000000E-01
  8.50000000E-01  8.50000000E-01  8.50000000E-01  8.00000000E-01  8.50000000E-01
  8.50000000E-01  8.50000000E-01  8.00000000E-01  8.50000000E-01  8.50000000E-01
  8.50000000E-01  8.00000000E-01  8.50000000E-01  8.50000000E-01  8.50000000E-01
  8.00000000E-01  8.50000000E-01  8.50000000E-01  8.50000000E-01  8.00000000E-01
  8.50000000E-01  8.50000000E-01  8.50000000E-01  8.00000000E-01  8.50000000E-01
  8.50000000E-01  8.50000000E-01  8.00000000E-01  8.50000000E-01  8.50000000E-01
  8.50000000E-01  8.00000000E-01  8.50000000E-01  8.50000000E-01  8.50000000E-01
  8.00000000E-01  8.50000000E-01  8.50000000E-01  8.50000000E-01  8.00000000E-01
  8.50000000E-01  8.50000000E-01  8.50000000E-01  8.00000000E-01  8.50000000E-01
  8.50000000E-01  8.50000000E-01  8.00000000E-01  8.50000000E-01  8.50000000E-01
  8.50000000E-01  8.00000000E-01  8.50000000E-01  8.50000000E-01  8.50000000E-01
  8.00000000E-01  8.50000000E-01  8.50000000E-01  8.50000000E-01  8.00000000E-01
  8.50000000E-01  8.50000000E-01  8.50000000E-01  8.00000000E-01  8.50000000E-01
  8.50000000E-01  8.50000000E-01  8.00000000E-01  8.50000000E-01  8.50000000E-01
  8.50000000E-01  8.00000000E-01  8.50000000E-01  8.50000000E-01  8.50000000E-01
  8.00000000E-01  8.50000000E-01  8.50000000E-01  8.50000000E-01  8.00000000E-01
  8.50000000E-01  8.50000000E-01  8.50000000E-01  8.00000000E-01  8.50000000E-01
  8.50000000E-01  8.50000000E-01  8.00000000E-01  8.50000000E-01  8.50000000E-01
  8.50000000E-01  8.00000000E-01  8.50000000E-01  8.50000000E-01  8.50000000E-01
  8.00000000E-01  8.50000000E-01  8.50000000E-01  8.50000000E-01  8.00000000E-01
  8.50000000E-01  8.50000000E-01  8.50000000E-01  8.00000000E-01  8.50000000E-01
  8.50000000E-01  8.50000000E-01  8.00000000E-01  8.50000000E-01  8.50000000E-01
  8.50000000E-01  8.00000000E-01  8.50000000E-01  8.50000000E-01  8.50000000E-01
  8.00000000E-01  8.50000000E-01  8.50000000E-01  8.50000000E-01  8.00000000E-01
  8.50000000E-01  8.50000000E-01  8.50000000E-01  8.00000000E-01  8.50000000E-01
  8.50000000E-01  8.50000000E-01  8.00000000E-01  8.50000000E-01  8.50000000E-01
  8.50000000E-01  8.00000000E-01  8.50000000E-01  8.50000000E-01  8.50000000E-01
  8.00000000E-01  8.50000000E-01  8.50000000E-01  8.50000000E-01  8.00000000E-01
  8.50000000E-01  8.50000000E-01  8.50000000E-01  8.00000000E-01  8.50000000E-01
  8.50000000E-01  8.50000000E-01  8.00000000E-01  8.50000000E-01  8.50000000E-01
  8.50000000E-01  8.00000000E-01  8.50000000E-01  8.50000000E-01  8.50000000E-01
  8.00000000E-01  8.50000000E-01  8.50000000E-01  8.50000000E-01  8.00000000E-01
  8.50000000E-01  8.50000000E-01  8.50000000E-01  8.00000000E-01  8.50000000E-01
  8.50000000E-01  8.50000000E-01  8.00000000E-01  8.50000000E-01  8.50000000E-01
  8.50000000E-01  8.00000000E-01  8.50000000E-01  8.50000000E-01  8.50000000E-01
  8.00000000E-01  8.50000000E-01  8.50000000E-01  8.50000000E-01  8.00000000E-01
  8.50000000E-01  8.50000000E-01  8.50000000E-01  8.00000000E-01  8.50000000E-01
  8.50000000E-01  8.50000000E-01  8.00000000E-01  8.50000000E-01  8.50000000E-01
  8.50000000E-01  8.00000000E-01  8.50000000E-01  8.50000000E-01  8.50000000E-01
  8.00000000E-01  8.50000000E-01  8.50000000E-01  8.50000000E-01  8.00000000E-01
  8.50000000E-01  8.50000000E-01  8.50000000E-01  8.00000000E-01  8.50000000E-01
  8.50000000E-01  8.50000000E-01  8.00000000E-01  8.50000000E-01  8.50000000E-01
  8.50000000E-01  8.00000000E-01  8.50000000E-01  8.50000000E-01  8.50000000E-01
  8.00000000E-01  8.50000000E-01  8.50000000E-01  8.50000000E-01  8.00000000E-01
  8.50000000E-01  8.50000000E-01  8.50000000E-01  8.00000000E-01  8.50000000E-01
  8.50000000E-01  8.50000000E-01  8.00000000E-01  8.50000000E-01  8.50000000E-01
  8.50000000E-01  8.00000000E-01  8.50000000E-01  8.50000000E-01  8.50000000E-01
  8.00000000E-01  8.50000000E-01  8.50000000E-01  8.50000000E-01  8.00000000E-01
  8.50000000E-01  8.50000000E-01  8.50000000E-01  8.00000000E-01  8.50000000E-01
  8.50000000E-01  8.50000000E-01  8.00000000E-01  8.50000000E-01  8.50000000E-01
  8.50000000E-01  8.00000000E-01  8.50000000E-01  8.50000000E-01  8.50000000E-01
  8.00000000E-01  8.50000000E-01  8.50000000E-01  8.50000000E-01  8.00000000E-01
  8.50000000E-01  8.50000000E-01  8.50000000E-01  8.00000000E-01  8.50000000E-01
  8.50000000E-01  8.50000000E-01  8.00000000E-01  8.50000000E-01  8.50000000E-01
  8.50000000E-01  8.00000000E-01  8.50000000E-01  8.50000000E-01  8.50000000E-01
  8.00000000E-01  8.50000000E-01  8.50000000E-01  8.50000000E-01  8.00000000E-01
  8.50000000E-01  8.50000000E-01  8.50000000E-01  8.00000000E-01  8.50000000E-01
  8.50000000E-01  8.50000000E-01  8.00000000E-01  8.50000000E-01  8.50000000E-01
  8.50000000E-01  8.00000000E-01  8.50000000E-01  8.50000000E-01  8.50000000E-01
  8.00000000E-01  8.50000000E-01  8.50000000E-01  8.50000000E-01  8.00000000E-01
  8.50000000E-01  8.50000000E-01  8.50000000E-01  8.00000000E-01  8.50000000E-01
  8.50000000E-01  8.50000000E-01  8.00000000E-01  8.50000000E-01  8.50000000E-01
  8.50000000E-01  8.00000000E-01  8.50000000E-01  8.50000000E-01  8.50000000E-01
  8.00000000E-01  8.50000000E-01  8.50000000E-01  8.50000000E-01  8.00000000E-01
  8.50000000E-01  8.50000000E-01  8.50000000E-01  8.00000000E-01  8.50000000E-01
  8.50000000E-01  8.50000000E-01  8.00000000E-01  8.50000000E-01  8.50000000E-01
  8.50000000E-01  8.00000000E-01  8.50000000E-01  8.50000000E-01  8.50000000E-01
  8.00000000E-01  8.50000000E-01  8.50000000E-01  8.50000000E-01  8.00000000E-01
  8.50000000E-01  8.50000000E-01  8.50000000E-01  8.00000000E-01  8.50000000E-01
  8.50000000E-01  8.50000000E-01  8.00000000E-01  8.50000000E-01  8.50000000E-01
  8.50000000E-01  8.00000000E-01  8.50000000E-01  8.50000000E-01  8.50000000E-01
  8.00000000E-01  8.50000000E-01  8.50000000E-01  8.50000000E-01  8.00000000E-01
  8.50000000E-01  8.50000000E-01  8.50000000E-01  8.00000000E-01  8.50000000E-01
  8.50000000E-01  8.50000000E-01  8.00000000E-01  8.50000000E-01  8.50000000E-01
  8.50000000E-01  8.00000000E-01  8.50000000E-01  8.50000000E-01  8.50000000E-01
  8.00000000E-01  8.50000000E-01  8.50000000E-01  8.50000000E-01  8.00000000E-01
  8.50000000E-01  8.50000000E-01  8.50000000E-01  8.00000000E-01  8.50000000E-01
  8.50000000E-01  8.50000000E-01  8.00000000E-01  8.50000000E-01  8.50000000E-01
  8.50000000E-01  8.00000000E-01  8.50000000E-01  8.50000000E-01  8.50000000E-01
  8.00000000E-01  8.50000000E-01  8.50000000E-01  8.50000000E-01  8.00000000E-01
  8.50000000E-01  8.50000000E-01  8.50000000E-01  8.00000000E-01  8.50000000E-01
  8.50000000E-01  8.50000000E-01  8.00000000E-01  8.50000000E-01  8.50000000E-01
  8.50000000E-01  8.00000000E-01  8.50000000E-01  8.50000000E-01  8.50000000E-01
  8.00000000E-01  8.50000000E-01  8.50000000E-01  8.50000000E-01  8.00000000E-01
  8.50000000E-01  8.50000000E-01  8.50000000E-01  8.00000000E-01  8.50000000E-01
  8.50000000E-01  8.50000000E-01  8.00000000E-01  8.50000000E-01  8.50000000E-01
  8.50000000E-01  8.00000000E-01  8.50000000E-01  8.50000000E-01  8.50000000E-01
  8.00000000E-01  8.50000000E-01  8.50000000E-01  8.50000000E-01  8.00000000E-01
  8.50000000E-01  8.50000000E-01  8.50000000E-01  8.00000000E-01  8.50000000E-01
  8.50000000E-01  8.50000000E-01  8.00000000E-01  8.50000000E-01  8.50000000E-01
  8.50000000E-01  8.00000000E-01  8.50000000E-01  8.50000000E-01  8.50000000E-01
  8.00000000E-01  8.50000000E-01  8.50000000E-01  8.50000000E-01  8.00000000E-01
  8.50000000E-01  8.50000000E-01  8.50000000E-01  8.00000000E-01  8.50000000E-01
  8.50000000E-01  8.50000000E-01  8.00000000E-01  8.50000000E-01  8.50000000E-01
  8.50000000E-01  8.00000000E-01  8.50000000E-01  8.50000000E-01  8.50000000E-01
  8.00000000E-01  8.50000000E-01  8.50000000E-01  8.50000000E-01  8.00000000E-01
  8.50000000E-01  8.50000000E-01  8.50000000E-01  8.00000000E-01  8.50000000E-01
  8.50000000E-01  8.50000000E-01  8.00000000E-01  8.50000000E-01  8.50000000E-01
  8.50000000E-01  8.00000000E-01  8.50000000E-01  8.50000000E-01  8.50000000E-01
  8.00000000E-01  8.50000000E-01  8.50000000E-01  8.50000000E-01  8.00000000E-01
  8.50000000E-01  8.50000000E-01  8.50000000E-01  8.00000000E-01  8.50000000E-01
  8.50000000E-01  8.50000000E-01  8.00000000E-01  8.50000000E-01  8.50000000E-01
  8.50000000E-01  8.00000000E-01  8.50000000E-01  8.50000000E-01  8.50000000E-01
  8.00000000E-01  8.50000000E-01  8.50000000E-01  8.50000000E-01  8.00000000E-01
  8.50000000E-01  8.50000000E-01  8.50000000E-01  8.00000000E-01  8.50000000E-01
  8.50000000E-01  8.50000000E-01  8.00000000E-01  8.50000000E-01  8.50000000E-01
  8.50000000E-01  8.00000000E-01  8.50000000E-01  8.50000000E-01  8.50000000E-01
  8.00000000E-01  8.50000000E-01  8.50000000E-01  8.50000000E-01  8.00000000E-01
  8.50000000E-01  8.50000000E-01  8.50000000E-01  8.00000000E-01  8.50000000E-01
  8.50000000E-01  8.50000000E-01  8.00000000E-01  8.50000000E-01  8.50000000E-01
  8.50000000E-01  8.00000000E-01  8.50000000E-01  8.50000000E-01  8.50000000E-01
  8.00000000E-01  8.50000000E-01  8.50000000E-01  8.50000000E-01  8.00000000E-01
  8.50000000E-01  8.50000000E-01  8.50000000E-01  8.00000000E-01  8.50000000E-01
  8.50000000E-01  8.50000000E-01  8.00000000E-01  8.50000000E-01  8.50000000E-01
  8.50000000E-01  8.00000000E-01  8.50000000E-01  8.50000000E-01  8.50000000E-01
  8.00000000E-01  8.50000000E-01  8.50000000E-01  8.50000000E-01  8.00000000E-01
  8.50000000E-01  8.50000000E-01  8.50000000E-01  8.00000000E-01  8.50000000E-01
  8.50000000E-01  8.50000000E-01  8.00000000E-01  8.50000000E-01  8.50000000E-01
  8.50000000E-01  8.00000000E-01  8.50000000E-01  8.50000000E-01  8.50000000E-01
  8.00000000E-01  8.50000000E-01  8.50000000E-01  8.50000000E-01  8.00000000E-01
  8.50000000E-01  8.50000000E-01  8.50000000E-01  8.00000000E-01  8.50000000E-01
  8.50000000E-01  8.50000000E-01  8.00000000E-01  8.50000000E-01  8.50000000E-01
  8.50000000E-01  8.00000000E-01  8.50000000E-01  8.50000000E-01  8.50000000E-01
  8.00000000E-01  8.50000000E-01  8.50000000E-01  8.50000000E-01  8.00000000E-01
  8.50000000E-01  8.50000000E-01  8.50000000E-01  8.00000000E-01  8.50000000E-01
  8.50000000E-01  8.50000000E-01  8.00000000E-01  8.50000000E-01  8.50000000E-01
  8.50000000E-01  8.00000000E-01  8.50000000E-01  8.50000000E-01  8.50000000E-01
  8.00000000E-01  8.50000000E-01  8.50000000E-01  8.50000000E-01  8.00000000E-01
  8.50000000E-01  8.50000000E-01  8.50000000E-01  8.00000000E-01  8.50000000E-01
  8.50000000E-01  8.50000000E-01  8.00000000E-01  8.50000000E-01  8.50000000E-01
  8.50000000E-01  8.00000000E-01  8.50000000E-01  8.50000000E-01  8.50000000E-01
  8.00000000E-01  8.50000000E-01  8.50000000E-01  8.50000000E-01  8.00000000E-01
  8.50000000E-01  8.50000000E-01  8.50000000E-01  8.00000000E-01  8.50000000E-01
  8.50000000E-01  8.50000000E-01  8.00000000E-01  8.50000000E-01  8.50000000E-01
  8.50000000E-01  8.00000000E-01  8.50000000E-01  8.50000000E-01  8.50000000E-01
  8.00000000E-01  8.50000000E-01  8.50000000E-01  8.50000000E-01  8.00000000E-01
  8.50000000E-01  8.50000000E-01  8.50000000E-01  8.00000000E-01  8.50000000E-01
  8.50000000E-01  8.50000000E-01  8.00000000E-01  8.50000000E-01  8.50000000E-01
  8.50000000E-01  8.00000000E-01  8.50000000E-01  8.50000000E-01  8.50000000E-01
  8.00000000E-01  8.50000000E-01  8.50000000E-01  8.50000000E-01  8.00000000E-01
  8.50000000E-01  8.50000000E-01  8.50000000E-01  8.00000000E-01  8.50000000E-01
  8.50000000E-01  8.50000000E-01  8.00000000E-01  8.50000000E-01  8.50000000E-01
  8.50000000E-01  8.00000000E-01  8.50000000E-01  8.50000000E-01  8.50000000E-01
  8.00000000E-01  8.50000000E-01  8.50000000E-01  8.50000000E-01  8.00000000E-01
  8.50000000E-01  8.50000000E-01  8.50000000E-01  8.00000000E-01  8.50000000E-01
  8.50000000E-01  8.50000000E-01  8.00000000E-01  8.50000000E-01  8.50000000E-01
  8.50000000E-01  8.00000000E-01  8.50000000E-01  8.50000000E-01  8.50000000E-01
  8.00000000E-01  8.50000000E-01  8.50000000E-01  8.50000000E-01  8.00000000E-01
  8.50000000E-01  8.50000000E-01  8.50000000E-01  8.00000000E-01  8.50000000E-01
  8.50000000E-01  8.50000000E-01  8.00000000E-01  8.50000000E-01  8.50000000E-01
  8.50000000E-01  8.00000000E-01  8.50000000E-01  8.50000000E-01  8.50000000E-01
  8.00000000E-01  8.50000000E-01  8.50000000E-01  8.50000000E-01  8.00000000E-01
  8.50000000E-01  8.50000000E-01  8.50000000E-01  8.00000000E-01  8.50000000E-01
  8.50000000E-01  8.50000000E-01  8.00000000E-01  8.50000000E-01  8.50000000E-01
  8.50000000E-01  8.00000000E-01  8.50000000E-01  8.50000000E-01  8.50000000E-01
  8.00000000E-01  8.50000000E-01  8.50000000E-01  8.50000000E-01  8.00000000E-01
  8.50000000E-01  8.50000000E-01  8.50000000E-01  8.00000000E-01  8.50000000E-01
  8.50000000E-01  8.50000000E-01  8.00000000E-01  8.50000000E-01  8.50000000E-01
  8.50000000E-01  8.00000000E-01  8.50000000E-01  8.50000000E-01  8.50000000E-01
  8.00000000E-01  8.50000000E-01  8.50000000E-01  8.50000000E-01  8.00000000E-01
  8.50000000E-01  8.50000000E-01  8.50000000E-01  8.00000000E-01  8.50000000E-01
  8.50000000E-01  8.50000000E-01  8.00000000E-01  8.50000000E-01  8.50000000E-01
  8.50000000E-01  8.00000000E-01  8.50000000E-01  8.50000000E-01  8.50000000E-01
  8.00000000E-01  8.50000000E-01  8.50000000E-01  8.50000000E-01  8.00000000E-01
  8.50000000E-01  8.50000000E-01  8.50000000E-01  8.00000000E-01  8.50000000E-01
  8.50000000E-01  8.50000000E-01  8.00000000E-01  8.50000000E-01  8.50000000E-01
  8.50000000E-01  8.00000000E-01  8.50000000E-01  8.50000000E-01  8.50000000E-01
  8.00000000E-01  8.50000000E-01  8.50000000E-01  8.50000000E-01  8.00000000E-01
  8.50000000E-01  8.50000000E-01  8.50000000E-01  8.00000000E-01  8.50000000E-01
  8.50000000E-01  8.50000000E-01  8.00000000E-01  8.50000000E-01  8.50000000E-01
  8.50000000E-01  8.00000000E-01  8.50000000E-01  8.50000000E-01  8.50000000E-01
  8.00000000E-01  8.50000000E-01  8.50000000E-01  8.50000000E-01  8.00000000E-01
  8.50000000E-01  8.50000000E-01  8.50000000E-01  8.00000000E-01  8.50000000E-01
  8.50000000E-01  8.50000000E-01  8.00000000E-01  8.50000000E-01  8.50000000E-01
  8.50000000E-01  8.00000000E-01  8.50000000E-01  8.50000000E-01  8.50000000E-01
  8.00000000E-01  8.50000000E-01  8.50000000E-01  8.50000000E-01  8.00000000E-01
  8.50000000E-01  8.50000000E-01  8.50000000E-01  8.00000000E-01  8.50000000E-01
  8.50000000E-01  8.50000000E-01  8.00000000E-01  8.50000000E-01  8.50000000E-01
  8.50000000E-01  8.00000000E-01  8.50000000E-01  8.50000000E-01  8.50000000E-01
  8.00000000E-01  8.50000000E-01  8.50000000E-01  8.50000000E-01  8.00000000E-01
  8.50000000E-01  8.50000000E-01  8.50000000E-01  8.00000000E-01  8.50000000E-01
  8.50000000E-01  8.50000000E-01  8.00000000E-01  8.50000000E-01  8.50000000E-01
  8.50000000E-01  8.00000000E-01  8.50000000E-01  8.50000000E-01  8.50000000E-01
  8.00000000E-01  8.50000000E-01  8.50000000E-01  8.50000000E-01  8.00000000E-01
  8.50000000E-01  8.50000000E-01  8.50000000E-01  8.00000000E-01  8.50000000E-01
  8.50000000E-01  8.50000000E-01  8.00000000E-01  8.50000000E-01  8.50000000E-01
  8.50000000E-01  8.00000000E-01  8.50000000E-01  8.50000000E-01  8.50000000E-01
  8.00000000E-01  8.50000000E-01  8.50000000E-01  8.50000000E-01  8.00000000E-01
  8.50000000E-01  8.50000000E-01  8.50000000E-01  8.00000000E-01  8.50000000E-01
  8.50000000E-01  8.50000000E-01  8.00000000E-01  8.50000000E-01  8.50000000E-01
  8.50000000E-01  8.00000000E-01  8.50000000E-01  8.50000000E-01  8.50000000E-01
  8.00000000E-01  8.50000000E-01  8.50000000E-01  8.50000000E-01  8.00000000E-01
  8.50000000E-01  8.50000000E-01  8.50000000E-01  8.00000000E-01  8.50000000E-01
  8.50000000E-01  8.50000000E-01  8.00000000E-01  8.50000000E-01  8.50000000E-01
  8.50000000E-01  8.00000000E-01  8.50000000E-01  8.50000000E-01  8.50000000E-01
  8.00000000E-01  8.50000000E-01  8.50000000E-01  8.50000000E-01  8.00000000E-01
  8.50000000E-01  8.50000000E-01  8.50000000E-01  8.00000000E-01  8.50000000E-01
  8.50000000E-01  8.50000000E-01  8.00000000E-01  8.50000000E-01  8.50000000E-01
  8.50000000E-01  8.00000000E-01  8.50000000E-01  8.50000000E-01  8.50000000E-01
  8.00000000E-01  8.50000000E-01  8.50000000E-01  8.50000000E-01  8.00000000E-01
  8.50000000E-01  8.50000000E-01  8.50000000E-01  8.00000000E-01  8.50000000E-01
  8.50000000E-01  8.50000000E-01  8.00000000E-01  8.50000000E-01  8.50000000E-01
  8.50000000E-01  8.00000000E-01  8.50000000E-01  8.50000000E-01  8.50000000E-01
  8.00000000E-01  8.50000000E-01  8.50000000E-01  8.50000000E-01  8.00000000E-01
  8.50000000E-01  8.50000000E-01  8.50000000E-01  8.00000000E-01  8.50000000E-01
  8.50000000E-01  8.50000000E-01  8.00000000E-01  8.50000000E-01  8.50000000E-01
  8.50000000E-01  8.00000000E-01  8.50000000E-01  8.50000000E-01  8.50000000E-01
  8.00000000E-01  8.50000000E-01  8.50000000E-01  8.50000000E-01  8.00000000E-01
  8.50000000E-01  8.50000000E-01  8.50000000E-01  8.00000000E-01  8.50000000E-01
  8.50000000E-01  8.50000000E-01  8.00000000E-01  8.50000000E-01  8.50000000E-01
  8.50000000E-01  8.00000000E-01  8.50000000E-01  8.50000000E-01  8.50000000E-01
  8.00000000E-01  8.50000000E-01  8.50000000E-01  8.50000000E-01  8.00000000E-01
  8.50000000E-01  8.50000000E-01  8.50000000E-01  8.00000000E-01  8.50000000E-01
  8.50000000E-01  8.50000000E-01  8.00000000E-01  8.50000000E-01  8.50000000E-01
  8.50000000E-01  8.00000000E-01  8.50000000E-01  8.50000000E-01  8.50000000E-01
  8.00000000E-01  8.50000000E-01  8.50000000E-01  8.50000000E-01  8.00000000E-01
  8.50000000E-01  8.50000000E-01  8.50000000E-01  8.00000000E-01  8.50000000E-01
  8.50000000E-01  8.50000000E-01  8.00000000E-01  8.50000000E-01  8.50000000E-01
  8.50000000E-01  8.00000000E-01  8.50000000E-01  8.50000000E-01  8.50000000E-01
  8.00000000E-01  8.50000000E-01  8.50000000E-01  8.50000000E-01  8.00000000E-01
  8.50000000E-01  8.50000000E-01  8.50000000E-01  8.00000000E-01  8.50000000E-01
  8.50000000E-01  8.50000000E-01  8.00000000E-01  8.50000000E-01  8.50000000E-01
  8.50000000E-01  8.00000000E-01  8.50000000E-01  8.50000000E-01  8.50000000E-01
  8.00000000E-01  8.50000000E-01  8.50000000E-01  8.50000000E-01  8.00000000E-01
  8.50000000E-01  8.50000000E-01  8.50000000E-01  8.00000000E-01  8.50000000E-01
  8.50000000E-01  8.50000000E-01  8.00000000E-01  8.50000000E-01  8.50000000E-01
  8.50000000E-01  8.00000000E-01  8.50000000E-01  8.50000000E-01  8.50000000E-01
  8.00000000E-01  8.50000000E-01  8.50000000E-01  8.50000000E-01  8.00000000E-01
  8.50000000E-01  8.50000000E-01  8.50000000E-01  8.00000000E-01  8.50000000E-01
  8.50000000E-01  8.50000000E-01  8.00000000E-01  8.50000000E-01  8.50000000E-01
  8.50000000E-01  8.00000000E-01  8.50000000E-01  8.50000000E-01  8.50000000E-01
  8.00000000E-01  8.50000000E-01  8.50000000E-01  8.50000000E-01  8.00000000E-01
  8.50000000E-01  8.50000000E-01  8.50000000E-01  8.00000000E-01  8.50000000E-01
  8.50000000E-01  8.50000000E-01  8.00000000E-01  8.50000000E-01  8.50000000E-01
  8.50000000E-01  8.00000000E-01  8.50000000E-01  8.50000000E-01  8.50000000E-01
  8.00000000E-01  8.50000000E-01  8.50000000E-01  8.50000000E-01  8.00000000E-01
  8.50000000E-01  8.50000000E-01  8.50000000E-01  8.00000000E-01  8.50000000E-01
  8.50000000E-01  8.50000000E-01  8.00000000E-01  8.50000000E-01  8.50000000E-01
  8.50000000E-01  8.00000000E-01  8.50000000E-01  8.50000000E-01  8.50000000E-01
  8.00000000E-01  8.50000000E-01  8.50000000E-01  8.50000000E-01  8.00000000E-01
  8.50000000E-01  8.50000000E-01  8.50000000E-01  8.00000000E-01  8.50000000E-01
  8.50000000E-01  8.50000000E-01  8.00000000E-01  8.50000000E-01  8.50000000E-01
  8.50000000E-01  8.00000000E-01  8.50000000E-01  8.50000000E-01  8.50000000E-01
  8.00000000E-01  8.50000000E-01  8.50000000E-01  8.50000000E-01  8.00000000E-01
  8.50000000E-01  8.50000000E-01  8.50000000E-01  8.00000000E-01  8.50000000E-01
  8.50000000E-01  8.50000000E-01  8.00000000E-01  8.50000000E-01  8.50000000E-01
  8.50000000E-01  8.00000000E-01  8.50000000E-01  8.50000000E-01  8.50000000E-01
  8.00000000E-01  8.50000000E-01  8.50000000E-01  8.50000000E-01  8.00000000E-01
  8.50000000E-01  8.50000000E-01  8.50000000E-01  8.00000000E-01  8.50000000E-01
  8.50000000E-01  8.50000000E-01  8.00000000E-01  8.50000000E-01  8.50000000E-01
  8.50000000E-01  8.00000000E-01  8.50000000E-01  8.50000000E-01  8.50000000E-01
  8.00000000E-01  8.50000000E-01  8.50000000E-01  8.50000000E-01  8.00000000E-01
  8.50000000E-01  8.50000000E-01  8.50000000E-01  8.00000000E-01  8.50000000E-01
  8.50000000E-01  8.50000000E-01  8.00000000E-01  8.50000000E-01  8.50000000E-01
  8.50000000E-01  8.00000000E-01  8.50000000E-01  8.50000000E-01  8.50000000E-01
  8.00000000E-01  8.50000000E-01  8.50000000E-01  8.50000000E-01  8.00000000E-01
  8.50000000E-01  8.50000000E-01  8.50000000E-01  8.00000000E-01  8.50000000E-01
  8.50000000E-01  8.50000000E-01  8.00000000E-01  8.50000000E-01  8.50000000E-01
  8.50000000E-01  8.00000000E-01  8.50000000E-01  8.50000000E-01  8.50000000E-01
  8.00000000E-01  8.50000000E-01  8.50000000E-01  8.50000000E-01  8.00000000E-01
  8.50000000E-01  8.50000000E-01  8.50000000E-01  8.00000000E-01  8.50000000E-01
  8.50000000E-01  8.50000000E-01  8.00000000E-01  8.50000000E-01  8.50000000E-01
  8.50000000E-01  8.00000000E-01  8.50000000E-01  8.50000000E-01  8.50000000E-01
  8.00000000E-01  8.50000000E-01  8.50000000E-01  8.50000000E-01  8.00000000E-01
  8.50000000E-01  8.50000000E-01  8.50000000E-01  8.00000000E-01  8.50000000E-01
  8.50000000E-01  8.50000000E-01  8.00000000E-01  8.50000000E-01  8.50000000E-01
  8.50000000E-01  8.00000000E-01  8.50000000E-01  8.50000000E-01  8.50000000E-01
  8.00000000E-01  8.50000000E-01  8.50000000E-01  8.50000000E-01  8.00000000E-01
  8.50000000E-01  8.50000000E-01  8.50000000E-01  8.00000000E-01  8.50000000E-01
  8.50000000E-01  8.50000000E-01  8.00000000E-01  8.50000000E-01  8.50000000E-01
  8.50000000E-01  8.00000000E-01  8.50000000E-01  8.50000000E-01  8.50000000E-01
  8.00000000E-01  8.50000000E-01  8.50000000E-01  8.50000000E-01  8.00000000E-01
  8.50000000E-01  8.50000000E-01  8.50000000E-01  8.00000000E-01  8.50000000E-01
  8.50000000E-01  8.50000000E-01  8.00000000E-01  8.50000000E-01  8.50000000E-01
  8.50000000E-01  8.00000000E-01  8.50000000E-01  8.50000000E-01  8.50000000E-01
  8.00000000E-01  8.50000000E-01  8.50000000E-01  8.50000000E-01  8.00000000E-01
  8.50000000E-01  8.50000000E-01  8.50000000E-01  8.00000000E-01  8.50000000E-01
  8.50000000E-01  8.50000000E-01  8.00000000E-01  8.50000000E-01  8.50000000E-01
  8.50000000E-01  8.00000000E-01  8.50000000E-01  8.50000000E-01  8.50000000E-01
  8.00000000E-01  8.50000000E-01  8.50000000E-01  8.50000000E-01  8.00000000E-01
  8.50000000E-01  8.50000000E-01  8.50000000E-01  8.00000000E-01  8.50000000E-01
  8.50000000E-01  8.50000000E-01  8.00000000E-01  8.50000000E-01  8.50000000E-01
  8.50000000E-01  8.00000000E-01  8.50000000E-01  8.50000000E-01  8.50000000E-01
  8.00000000E-01  8.50000000E-01  8.50000000E-01  8.50000000E-01  8.00000000E-01
  8.50000000E-01  8.50000000E-01  8.50000000E-01  8.00000000E-01  8.50000000E-01
  8.50000000E-01  8.50000000E-01  8.00000000E-01  8.50000000E-01  8.50000000E-01
  8.50000000E-01  8.00000000E-01  8.50000000E-01  8.50000000E-01  8.50000000E-01
  8.00000000E-01  8.50000000E-01  8.50000000E-01  8.50000000E-01  8.00000000E-01
  8.50000000E-01  8.50000000E-01  8.50000000E-01  8.00000000E-01  8.50000000E-01
  8.50000000E-01  8.50000000E-01  8.00000000E-01  8.50000000E-01  8.50000000E-01
  8.50000000E-01  8.00000000E-01  8.50000000E-01  8.50000000E-01  8.50000000E-01
  8.00000000E-01  8.50000000E-01  8.50000000E-01  8.50000000E-01  8.00000000E-01
  8.50000000E-01  8.50000000E-01  8.50000000E-01  8.00000000E-01  8.50000000E-01
  8.50000000E-01  8.50000000E-01  8.00000000E-01  8.50000000E-01  8.50000000E-01
  8.50000000E-01  8.00000000E-01  8.50000000E-01  8.50000000E-01  8.50000000E-01
  8.00000000E-01  8.50000000E-01  8.50000000E-01  8.50000000E-01  8.00000000E-01
  8.50000000E-01  8.50000000E-01  8.50000000E-01  8.00000000E-01  8.50000000E-01
  8.50000000E-01  8.50000000E-01  8.00000000E-01  8.50000000E-01  8.50000000E-01
  8.50000000E-01  8.00000000E-01  8.50000000E-01  8.50000000E-01  8.50000000E-01
  8.00000000E-01  8.50000000E-01  8.50000000E-01  8.50000000E-01  8.00000000E-01
  8.50000000E-01  8.50000000E-01  8.50000000E-01  8.00000000E-01  8.50000000E-01
  8.50000000E-01  8.50000000E-01  8.00000000E-01  8.50000000E-01  8.50000000E-01
  8.50000000E-01  8.00000000E-01  8.50000000E-01  8.50000000E-01  8.50000000E-01
  8.00000000E-01  8.50000000E-01  8.50000000E-01  8.50000000E-01  8.00000000E-01
  8.50000000E-01  8.50000000E-01  8.50000000E-01  8.00000000E-01  8.50000000E-01
  8.50000000E-01  8.50000000E-01  8.00000000E-01  8.50000000E-01  8.50000000E-01
  8.50000000E-01  8.00000000E-01  8.50000000E-01  8.50000000E-01  8.50000000E-01
  8.00000000E-01  8.50000000E-01  8.50000000E-01  8.50000000E-01  8.00000000E-01
  8.50000000E-01  8.50000000E-01  8.50000000E-01  8.00000000E-01  8.50000000E-01
  8.50000000E-01  8.50000000E-01  8.00000000E-01  8.50000000E-01  8.50000000E-01
  8.50000000E-01  8.00000000E-01  8.50000000E-01  8.50000000E-01  8.50000000E-01
  8.00000000E-01  8.50000000E-01  8.50000000E-01  8.50000000E-01  8.00000000E-01
  8.50000000E-01  8.50000000E-01  8.50000000E-01  8.00000000E-01  8.50000000E-01
  8.50000000E-01  8.50000000E-01  8.00000000E-01  8.50000000E-01  8.50000000E-01
  8.50000000E-01  8.00000000E-01  8.50000000E-01  8.50000000E-01  8.50000000E-01
  8.00000000E-01  8.50000000E-01  8.50000000E-01  8.50000000E-01  8.00000000E-01
  8.50000000E-01  8.50000000E-01  8.50000000E-01  8.00000000E-01  8.50000000E-01
  8.50000000E-01  8.50000000E-01  8.00000000E-01  8.50000000E-01  8.50000000E-01
  8.50000000E-01  8.00000000E-01  8.50000000E-01  8.50000000E-01  8.50000000E-01
  8.00000000E-01  8.50000000E-01  8.50000000E-01  8.50000000E-01  8.00000000E-01
  8.50000000E-01  8.50000000E-01  8.50000000E-01  8.00000000E-01  8.50000000E-01
  8.50000000E-01  8.50000000E-01  8.00000000E-01  8.50000000E-01  8.50000000E-01
  8.50000000E-01  8.00000000E-01  8.50000000E-01  8.50000000E-01  8.50000000E-01
  8.00000000E-01  8.50000000E-01  8.50000000E-01  8.50000000E-01  8.00000000E-01
  8.50000000E-01  8.50000000E-01  8.50000000E-01  8.00000000E-01  8.50000000E-01
  8.50000000E-01  8.50000000E-01  8.00000000E-01  8.50000000E-01  8.50000000E-01
  8.50000000E-01  8.00000000E-01  8.50000000E-01  8.50000000E-01  8.50000000E-01
  8.00000000E-01  8.50000000E-01  8.50000000E-01  8.50000000E-01  8.00000000E-01
  8.50000000E-01  8.50000000E-01  8.50000000E-01  8.00000000E-01  8.50000000E-01
  8.50000000E-01  8.50000000E-01  8.00000000E-01  8.50000000E-01  8.50000000E-01
  8.50000000E-01  8.00000000E-01  8.50000000E-01  8.50000000E-01  8.50000000E-01
  8.00000000E-01  8.50000000E-01  8.50000000E-01  8.50000000E-01  8.00000000E-01
  8.50000000E-01  8.50000000E-01  8.50000000E-01  8.00000000E-01  8.50000000E-01
  8.50000000E-01  8.50000000E-01  8.00000000E-01  8.50000000E-01  8.50000000E-01
  8.50000000E-01  8.00000000E-01  8.50000000E-01  8.50000000E-01  8.50000000E-01
  8.00000000E-01  8.50000000E-01  8.50000000E-01  8.50000000E-01  8.00000000E-01
  8.50000000E-01  8.50000000E-01  8.50000000E-01  8.00000000E-01  8.50000000E-01
  8.50000000E-01  8.50000000E-01  8.00000000E-01  8.50000000E-01  8.50000000E-01
  8.50000000E-01  8.00000000E-01  8.50000000E-01  8.50000000E-01  8.50000000E-01
  8.00000000E-01  8.50000000E-01  8.50000000E-01  8.50000000E-01  8.00000000E-01
  8.50000000E-01  8.50000000E-01  8.50000000E-01  8.00000000E-01  8.50000000E-01
  8.50000000E-01  8.50000000E-01  8.00000000E-01  8.50000000E-01  8.50000000E-01
  8.50000000E-01  8.00000000E-01  8.50000000E-01  8.50000000E-01  8.50000000E-01
  8.00000000E-01  8.50000000E-01  8.50000000E-01  8.50000000E-01  8.00000000E-01
  8.50000000E-01  8.50000000E-01  8.50000000E-01  8.00000000E-01  8.50000000E-01
  8.50000000E-01  8.50000000E-01  8.00000000E-01  8.50000000E-01  8.50000000E-01
  8.50000000E-01  8.00000000E-01  8.50000000E-01  8.50000000E-01  8.50000000E-01
  8.00000000E-01  8.50000000E-01  8.50000000E-01  8.50000000E-01  8.00000000E-01
  8.50000000E-01  8.50000000E-01  8.50000000E-01  8.00000000E-01  8.50000000E-01
  8.50000000E-01  8.50000000E-01  8.00000000E-01  8.50000000E-01  8.50000000E-01
  8.50000000E-01  8.00000000E-01  8.50000000E-01  8.50000000E-01  8.50000000E-01
  8.00000000E-01  8.50000000E-01  8.50000000E-01  8.50000000E-01  8.00000000E-01
  8.50000000E-01  8.50000000E-01  8.50000000E-01  8.00000000E-01  8.50000000E-01
  8.50000000E-01  8.50000000E-01  8.00000000E-01  8.50000000E-01  8.50000000E-01
  8.50000000E-01  8.00000000E-01  8.50000000E-01  8.50000000E-01  8.50000000E-01
  8.00000000E-01  8.50000000E-01  8.50000000E-01  8.50000000E-01  8.00000000E-01
  8.50000000E-01  8.50000000E-01  8.50000000E-01  8.00000000E-01  8.50000000E-01
  8.50000000E-01  8.50000000E-01  8.00000000E-01  8.50000000E-01  8.50000000E-01
  8.50000000E-01  8.00000000E-01  8.50000000E-01  8.50000000E-01  8.50000000E-01
  8.00000000E-01  8.50000000E-01  8.50000000E-01  8.50000000E-01  8.00000000E-01
  8.50000000E-01  8.50000000E-01  8.50000000E-01  8.00000000E-01  8.50000000E-01
  8.50000000E-01  8.50000000E-01  8.00000000E-01  8.50000000E-01  8.50000000E-01
  8.50000000E-01  8.00000000E-01  8.50000000E-01  8.50000000E-01  8.50000000E-01
  8.00000000E-01  8.50000000E-01  8.50000000E-01  8.50000000E-01  8.00000000E-01
  8.50000000E-01  8.50000000E-01  8.50000000E-01  8.00000000E-01  8.50000000E-01
  8.50000000E-01  8.50000000E-01  8.00000000E-01  8.50000000E-01  8.50000000E-01
  8.50000000E-01  8.00000000E-01  8.50000000E-01  8.50000000E-01  8.50000000E-01
  8.00000000E-01  8.50000000E-01  8.50000000E-01  8.50000000E-01  8.00000000E-01
  8.50000000E-01  8.50000000E-01  8.50000000E-01  8.00000000E-01  8.50000000E-01
  8.50000000E-01  8.50000000E-01  8.00000000E-01  8.50000000E-01  8.50000000E-01
  8.50000000E-01  8.00000000E-01  8.50000000E-01  8.50000000E-01  8.50000000E-01
  8.00000000E-01  8.50000000E-01  8.50000000E-01  8.50000000E-01  8.00000000E-01
  8.50000000E-01  8.50000000E-01  8.50000000E-01  8.00000000E-01  8.50000000E-01
  8.50000000E-01  8.50000000E-01  8.00000000E-01  8.50000000E-01  8.50000000E-01
  8.50000000E-01  8.00000000E-01  8.50000000E-01  8.50000000E-01  8.50000000E-01
  8.00000000E-01  8.50000000E-01  8.50000000E-01  8.50000000E-01  8.00000000E-01
  8.50000000E-01  8.50000000E-01  8.50000000E-01  8.00000000E-01  8.50000000E-01
  8.50000000E-01  8.50000000E-01  8.00000000E-01  8.50000000E-01  8.50000000E-01
  8.50000000E-01  8.00000000E-01  8.50000000E-01  8.50000000E-01  8.50000000E-01
  8.00000000E-01  8.50000000E-01  8.50000000E-01  8.50000000E-01  8.00000000E-01
  8.50000000E-01  8.50000000E-01  8.50000000E-01  8.00000000E-01  8.50000000E-01
  8.50000000E-01  8.50000000E-01  8.00000000E-01  8.50000000E-01  8.50000000E-01
  8.50000000E-01  8.00000000E-01  8.50000000E-01  8.50000000E-01  8.50000000E-01
  8.00000000E-01  8.50000000E-01  8.50000000E-01  8.50000000E-01  8.00000000E-01
  8.50000000E-01  8.50000000E-01  8.50000000E-01  8.00000000E-01  8.50000000E-01
  8.50000000E-01  8.50000000E-01  8.00000000E-01  8.50000000E-01  8.50000000E-01
  8.50000000E-01  8.00000000E-01  8.50000000E-01  8.50000000E-01  8.50000000E-01
  8.00000000E-01  8.50000000E-01  8.50000000E-01  8.50000000E-01  8.00000000E-01
  8.50000000E-01  8.50000000E-01  8.50000000E-01  8.00000000E-01  8.50000000E-01
  8.50000000E-01  8.50000000E-01  8.00000000E-01  8.50000000E-01  8.50000000E-01
  8.50000000E-01  8.00000000E-01  8.50000000E-01  8.50000000E-01  8.50000000E-01
  8.00000000E-01  8.50000000E-01  8.50000000E-01  8.50000000E-01  8.00000000E-01
  8.50000000E-01  8.50000000E-01  8.50000000E-01  8.00000000E-01  8.50000000E-01
  8.50000000E-01  8.50000000E-01  8.00000000E-01  8.50000000E-01  8.50000000E-01
  8.50000000E-01  8.00000000E-01  8.50000000E-01  8.50000000E-01  8.50000000E-01
  8.00000000E-01  8.50000000E-01  8.50000000E-01  8.50000000E-01  8.00000000E-01
  8.50000000E-01  8.50000000E-01  8.50000000E-01  8.00000000E-01  8.50000000E-01
  8.50000000E-01  8.50000000E-01  8.00000000E-01  8.50000000E-01  8.50000000E-01
  8.50000000E-01  8.00000000E-01  8.50000000E-01  8.50000000E-01  8.50000000E-01
  8.00000000E-01  8.50000000E-01  8.50000000E-01  8.50000000E-01  8.00000000E-01
  8.50000000E-01  8.50000000E-01  8.50000000E-01  8.00000000E-01  8.50000000E-01
  8.50000000E-01  8.50000000E-01  8.00000000E-01  8.50000000E-01  8.50000000E-01
  8.50000000E-01  8.00000000E-01  8.50000000E-01  8.50000000E-01  8.50000000E-01
  8.00000000E-01  8.50000000E-01  8.50000000E-01  8.50000000E-01  8.00000000E-01
  8.50000000E-01  8.50000000E-01  8.50000000E-01  8.00000000E-01  8.50000000E-01
  8.50000000E-01  8.50000000E-01  8.00000000E-01  8.50000000E-01  8.50000000E-01
  8.50000000E-01  8.00000000E-01  8.50000000E-01  8.50000000E-01  8.50000000E-01
  8.00000000E-01  8.50000000E-01  8.50000000E-01  8.50000000E-01  8.00000000E-01
  8.50000000E-01  8.50000000E-01  8.50000000E-01  8.00000000E-01  8.50000000E-01
  8.50000000E-01  8.50000000E-01  8.00000000E-01  8.50000000E-01  8.50000000E-01
  8.50000000E-01  8.00000000E-01  8.50000000E-01  8.50000000E-01  8.50000000E-01
  8.00000000E-01  8.50000000E-01  8.50000000E-01  8.50000000E-01  8.00000000E-01
  8.50000000E-01  8.50000000E-01  8.50000000E-01  8.00000000E-01  8.50000000E-01
  8.50000000E-01  8.50000000E-01  8.00000000E-01  8.50000000E-01  8.50000000E-01
  8.50000000E-01  8.00000000E-01  8.50000000E-01  8.50000000E-01  8.50000000E-01
  8.00000000E-01  8.50000000E-01  8.50000000E-01  8.50000000E-01  8.00000000E-01
  8.50000000E-01  8.50000000E-01  8.50000000E-01  8.00000000E-01  8.50000000E-01
  8.50000000E-01  8.50000000E-01  8.00000000E-01  8.50000000E-01  8.50000000E-01
  8.50000000E-01  8.00000000E-01  8.50000000E-01  8.50000000E-01  8.50000000E-01
  8.00000000E-01  8.50000000E-01  8.50000000E-01  8.50000000E-01  8.00000000E-01
  8.50000000E-01  8.50000000E-01  8.50000000E-01  8.00000000E-01  8.50000000E-01
  8.50000000E-01  8.50000000E-01  8.00000000E-01  8.50000000E-01  8.50000000E-01
  8.50000000E-01  8.00000000E-01  8.50000000E-01  8.50000000E-01  8.50000000E-01
  8.00000000E-01  8.50000000E-01  8.50000000E-01  8.50000000E-01  8.00000000E-01
  8.50000000E-01  8.50000000E-01  8.50000000E-01  8.00000000E-01  8.50000000E-01
  8.50000000E-01  8.50000000E-01  8.00000000E-01  8.50000000E-01  8.50000000E-01
  8.50000000E-01  8.00000000E-01  8.50000000E-01  8.50000000E-01  8.50000000E-01
  8.00000000E-01  8.50000000E-01  8.50000000E-01  8.50000000E-01  8.00000000E-01
  8.50000000E-01  8.50000000E-01  8.50000000E-01  8.00000000E-01  8.50000000E-01
  8.50000000E-01  8.50000000E-01  8.00000000E-01  8.50000000E-01  8.50000000E-01
  8.50000000E-01  8.00000000E-01  8.50000000E-01  8.50000000E-01  8.50000000E-01
  8.00000000E-01  8.50000000E-01  8.50000000E-01  8.50000000E-01  8.00000000E-01
  8.50000000E-01  8.50000000E-01  8.50000000E-01  8.00000000E-01  8.50000000E-01
  8.50000000E-01  8.50000000E-01  8.00000000E-01  8.50000000E-01  8.50000000E-01
  8.50000000E-01  8.00000000E-01  8.50000000E-01  8.50000000E-01  8.50000000E-01
  8.00000000E-01  8.50000000E-01  8.50000000E-01  8.50000000E-01  8.00000000E-01
  8.50000000E-01  8.50000000E-01  8.50000000E-01  8.00000000E-01  8.50000000E-01
  8.50000000E-01  8.50000000E-01  8.00000000E-01  8.50000000E-01  8.50000000E-01
  8.50000000E-01  8.00000000E-01  8.50000000E-01  8.50000000E-01  8.50000000E-01
  8.00000000E-01  8.50000000E-01  8.50000000E-01  8.50000000E-01  8.00000000E-01
  8.50000000E-01  8.50000000E-01  8.50000000E-01  8.00000000E-01  8.50000000E-01
  8.50000000E-01  8.50000000E-01  8.00000000E-01  8.50000000E-01  8.50000000E-01
  8.50000000E-01  8.00000000E-01  8.50000000E-01  8.50000000E-01  8.50000000E-01
  8.00000000E-01  8.50000000E-01  8.50000000E-01  8.50000000E-01  8.00000000E-01
  8.50000000E-01  8.50000000E-01  8.50000000E-01  8.00000000E-01  8.50000000E-01
  8.50000000E-01  8.50000000E-01  8.00000000E-01  8.50000000E-01  8.50000000E-01
  8.50000000E-01  8.00000000E-01  8.50000000E-01  8.50000000E-01  8.50000000E-01
  8.00000000E-01  8.50000000E-01  8.50000000E-01  8.50000000E-01  8.00000000E-01
  8.50000000E-01  8.50000000E-01  8.50000000E-01  8.00000000E-01  8.50000000E-01
  8.50000000E-01  8.50000000E-01  8.00000000E-01  8.50000000E-01  8.50000000E-01
  8.50000000E-01  8.00000000E-01  8.50000000E-01  8.50000000E-01  8.50000000E-01
  8.00000000E-01  8.50000000E-01  8.50000000E-01  8.50000000E-01  8.00000000E-01
  8.50000000E-01  8.50000000E-01  8.50000000E-01  8.00000000E-01  8.50000000E-01
  8.50000000E-01  8.50000000E-01  8.00000000E-01  8.50000000E-01  8.50000000E-01
  8.50000000E-01  8.00000000E-01  8.50000000E-01  8.50000000E-01  8.50000000E-01
  8.00000000E-01  8.50000000E-01  8.50000000E-01  8.50000000E-01  8.00000000E-01
  8.50000000E-01  8.50000000E-01  8.50000000E-01  8.00000000E-01  8.50000000E-01
  8.50000000E-01  8.50000000E-01  8.00000000E-01  8.50000000E-01  8.50000000E-01
  8.50000000E-01  8.00000000E-01  8.50000000E-01  8.50000000E-01  8.50000000E-01
  8.00000000E-01  8.50000000E-01  8.50000000E-01  8.50000000E-01  8.00000000E-01
  8.50000000E-01  8.50000000E-01  8.50000000E-01  8.00000000E-01  8.50000000E-01
  8.50000000E-01  8.50000000E-01  8.00000000E-01  8.50000000E-01  8.50000000E-01
  8.50000000E-01  8.00000000E-01  8.50000000E-01  8.50000000E-01  8.50000000E-01
  8.00000000E-01  8.50000000E-01  8.50000000E-01  8.50000000E-01  8.00000000E-01
  8.50000000E-01  8.50000000E-01  8.50000000E-01  8.00000000E-01  8.50000000E-01
  8.50000000E-01  8.50000000E-01  8.00000000E-01  8.50000000E-01  8.50000000E-01
  8.50000000E-01  8.00000000E-01  8.50000000E-01  8.50000000E-01  8.50000000E-01
  8.00000000E-01  8.50000000E-01  8.50000000E-01  8.50000000E-01  8.00000000E-01
  8.50000000E-01  8.50000000E-01  8.50000000E-01  8.00000000E-01  8.50000000E-01
  8.50000000E-01  8.50000000E-01  8.00000000E-01  8.50000000E-01  8.50000000E-01
  8.50000000E-01  8.00000000E-01  8.50000000E-01  8.50000000E-01  8.50000000E-01
  8.00000000E-01  8.50000000E-01  8.50000000E-01  8.50000000E-01  8.00000000E-01
  8.50000000E-01  8.50000000E-01  8.50000000E-01  8.00000000E-01  8.50000000E-01
  8.50000000E-01  8.50000000E-01  8.00000000E-01  8.50000000E-01  8.50000000E-01
  8.50000000E-01  8.00000000E-01  8.50000000E-01  8.50000000E-01  8.50000000E-01
  8.00000000E-01  8.50000000E-01  8.50000000E-01  8.50000000E-01  8.00000000E-01
  8.50000000E-01  8.50000000E-01  8.50000000E-01  8.00000000E-01  8.50000000E-01
  8.50000000E-01  8.50000000E-01  8.00000000E-01  8.50000000E-01  8.50000000E-01
  8.50000000E-01  8.00000000E-01  8.50000000E-01  8.50000000E-01  8.50000000E-01
  8.00000000E-01  8.50000000E-01  8.50000000E-01  8.50000000E-01  8.00000000E-01
  8.50000000E-01  8.50000000E-01  8.50000000E-01  8.00000000E-01  8.50000000E-01
  8.50000000E-01  8.50000000E-01  8.00000000E-01  8.50000000E-01  8.50000000E-01
  8.50000000E-01  8.00000000E-01  8.50000000E-01  8.50000000E-01  8.50000000E-01
  8.00000000E-01  8.50000000E-01  8.50000000E-01  8.50000000E-01  8.00000000E-01
  8.50000000E-01  8.50000000E-01  8.50000000E-01  8.00000000E-01  8.50000000E-01
  8.50000000E-01  8.50000000E-01  8.00000000E-01  8.50000000E-01  8.50000000E-01
  8.50000000E-01  8.00000000E-01  8.50000000E-01  8.50000000E-01  8.50000000E-01
  8.00000000E-01  8.50000000E-01  8.50000000E-01  8.50000000E-01  8.00000000E-01
  8.50000000E-01  8.50000000E-01  8.50000000E-01  8.00000000E-01  8.50000000E-01
  8.50000000E-01  8.50000000E-01  8.00000000E-01  8.50000000E-01  8.50000000E-01
  8.50000000E-01  8.00000000E-01  8.50000000E-01  8.50000000E-01  8.50000000E-01
  8.00000000E-01  8.50000000E-01  8.50000000E-01  8.50000000E-01  8.00000000E-01
  8.50000000E-01  8.50000000E-01  8.50000000E-01  8.00000000E-01  8.50000000E-01
  8.50000000E-01  8.50000000E-01  8.00000000E-01  8.50000000E-01  8.50000000E-01
  8.50000000E-01  8.00000000E-01  8.50000000E-01  8.50000000E-01  8.50000000E-01
  8.00000000E-01  8.50000000E-01  8.50000000E-01  8.50000000E-01  8.00000000E-01
  8.50000000E-01  8.50000000E-01  8.50000000E-01  8.00000000E-01  8.50000000E-01
  8.50000000E-01  8.50000000E-01  8.00000000E-01  8.50000000E-01  8.50000000E-01
  8.50000000E-01  8.00000000E-01  8.50000000E-01  8.50000000E-01  8.50000000E-01
  8.00000000E-01  8.50000000E-01  8.50000000E-01  8.50000000E-01  8.00000000E-01
  8.50000000E-01  8.50000000E-01  8.50000000E-01  8.00000000E-01  8.50000000E-01
  8.50000000E-01  8.50000000E-01  8.00000000E-01  8.50000000E-01  8.50000000E-01
  8.50000000E-01  8.00000000E-01  8.50000000E-01  8.50000000E-01  8.50000000E-01
  8.00000000E-01  8.50000000E-01  8.50000000E-01  8.50000000E-01  8.00000000E-01
  8.50000000E-01  8.50000000E-01  8.50000000E-01  8.00000000E-01  8.50000000E-01
  8.50000000E-01  8.50000000E-01  8.00000000E-01  8.50000000E-01  8.50000000E-01
  8.50000000E-01  8.00000000E-01  8.50000000E-01  8.50000000E-01  8.50000000E-01
  8.00000000E-01  8.50000000E-01  8.50000000E-01  8.50000000E-01  8.00000000E-01
  8.50000000E-01  8.50000000E-01  8.50000000E-01  8.00000000E-01  8.50000000E-01
  8.50000000E-01  8.50000000E-01  8.00000000E-01  8.50000000E-01  8.50000000E-01
  8.50000000E-01  8.00000000E-01  8.50000000E-01  8.50000000E-01  8.50000000E-01
  8.00000000E-01  8.50000000E-01  8.50000000E-01  8.50000000E-01  8.00000000E-01
  8.50000000E-01  8.50000000E-01  8.50000000E-01  8.00000000E-01  8.50000000E-01
  8.50000000E-01  8.50000000E-01  8.00000000E-01  8.50000000E-01  8.50000000E-01
  8.50000000E-01  8.00000000E-01  8.50000000E-01  8.50000000E-01  8.50000000E-01
  8.00000000E-01  8.50000000E-01  8.50000000E-01  8.50000000E-01  8.00000000E-01
  8.50000000E-01  8.50000000E-01  8.50000000E-01  8.00000000E-01  8.50000000E-01
  8.50000000E-01  8.50000000E-01  8.00000000E-01  8.50000000E-01  8.50000000E-01
  8.50000000E-01  8.00000000E-01  8.50000000E-01  8.50000000E-01  8.50000000E-01
  8.00000000E-01  8.50000000E-01  8.50000000E-01  8.50000000E-01  8.00000000E-01
  8.50000000E-01  8.50000000E-01  8.50000000E-01  8.00000000E-01  8.50000000E-01
  8.50000000E-01  8.50000000E-01  8.00000000E-01  8.50000000E-01  8.50000000E-01
  8.50000000E-01  8.00000000E-01  8.50000000E-01  8.50000000E-01  8.50000000E-01
  8.00000000E-01  8.50000000E-01  8.50000000E-01  8.50000000E-01  8.00000000E-01
  8.50000000E-01  8.50000000E-01  8.50000000E-01  8.00000000E-01  8.50000000E-01
  8.50000000E-01  8.50000000E-01  8.00000000E-01  8.50000000E-01  8.50000000E-01
  8.50000000E-01  8.00000000E-01  8.50000000E-01  8.50000000E-01  8.50000000E-01
  8.00000000E-01  8.50000000E-01  8.50000000E-01  8.50000000E-01  8.00000000E-01
  8.50000000E-01  8.50000000E-01  8.50000000E-01  8.00000000E-01  8.50000000E-01
  8.50000000E-01  8.50000000E-01  8.00000000E-01  8.50000000E-01  8.50000000E-01
  8.50000000E-01  8.00000000E-01  8.50000000E-01  8.50000000E-01  8.50000000E-01
  8.00000000E-01  8.50000000E-01  8.50000000E-01  8.50000000E-01  8.00000000E-01
  8.50000000E-01  8.50000000E-01  8.50000000E-01  8.00000000E-01  8.50000000E-01
  8.50000000E-01  8.50000000E-01  8.00000000E-01  8.50000000E-01  8.50000000E-01
  8.50000000E-01  8.00000000E-01  8.50000000E-01  8.50000000E-01  8.50000000E-01
  8.00000000E-01  8.50000000E-01  8.50000000E-01  8.50000000E-01  8.00000000E-01
  8.50000000E-01  8.50000000E-01  8.50000000E-01  8.00000000E-01  8.50000000E-01
  8.50000000E-01  8.50000000E-01  8.00000000E-01  8.50000000E-01  8.50000000E-01
  8.50000000E-01  8.00000000E-01  8.50000000E-01  8.50000000E-01  8.50000000E-01
  8.00000000E-01  8.50000000E-01  8.50000000E-01  8.50000000E-01  8.00000000E-01
  8.50000000E-01  8.50000000E-01  8.50000000E-01  8.00000000E-01  8.50000000E-01
  8.50000000E-01  8.50000000E-01  8.00000000E-01  8.50000000E-01  8.50000000E-01
  8.50000000E-01  8.00000000E-01  8.50000000E-01  8.50000000E-01  8.50000000E-01
  8.00000000E-01  8.50000000E-01  8.50000000E-01  8.50000000E-01  8.00000000E-01
  8.50000000E-01  8.50000000E-01  8.50000000E-01  8.00000000E-01  8.50000000E-01
  8.50000000E-01  8.50000000E-01  8.00000000E-01  8.50000000E-01  8.50000000E-01
  8.50000000E-01  8.00000000E-01  8.50000000E-01  8.50000000E-01  8.50000000E-01
  8.00000000E-01  8.50000000E-01  8.50000000E-01  8.50000000E-01  8.00000000E-01
  8.50000000E-01  8.50000000E-01  8.50000000E-01  8.00000000E-01  8.50000000E-01
  8.50000000E-01  8.50000000E-01  8.00000000E-01  8.50000000E-01  8.50000000E-01
  8.50000000E-01  8.00000000E-01  8.50000000E-01  8.50000000E-01  8.50000000E-01
  8.00000000E-01  8.50000000E-01  8.50000000E-01  8.50000000E-01  8.00000000E-01
  8.50000000E-01  8.50000000E-01  8.50000000E-01  8.00000000E-01  8.50000000E-01
  8.50000000E-01  8.50000000E-01  8.00000000E-01  8.50000000E-01  8.50000000E-01
  8.50000000E-01  8.00000000E-01  8.50000000E-01  8.50000000E-01  8.50000000E-01
  8.00000000E-01  8.50000000E-01  8.50000000E-01  8.50000000E-01  8.00000000E-01
  8.50000000E-01  8.50000000E-01  8.50000000E-01  8.00000000E-01  8.50000000E-01
  8.50000000E-01  8.50000000E-01  8.00000000E-01  8.50000000E-01  8.50000000E-01
  8.50000000E-01  8.00000000E-01  8.50000000E-01  8.50000000E-01  8.50000000E-01
  8.00000000E-01  8.50000000E-01  8.50000000E-01  8.50000000E-01  8.00000000E-01
  8.50000000E-01  8.50000000E-01  8.50000000E-01  8.00000000E-01  8.50000000E-01
  8.50000000E-01  8.50000000E-01  8.00000000E-01  8.50000000E-01  8.50000000E-01
  8.50000000E-01  8.00000000E-01  8.50000000E-01  8.50000000E-01  8.50000000E-01
  8.00000000E-01  8.50000000E-01  8.50000000E-01  8.50000000E-01  8.00000000E-01
  8.50000000E-01  8.50000000E-01  8.50000000E-01  8.00000000E-01  8.50000000E-01
  8.50000000E-01  8.50000000E-01  8.00000000E-01  8.50000000E-01  8.50000000E-01
  8.50000000E-01  8.00000000E-01  8.50000000E-01  8.50000000E-01  8.50000000E-01
  8.00000000E-01  8.50000000E-01  8.50000000E-01  8.50000000E-01  8.00000000E-01
  8.50000000E-01  8.50000000E-01  8.50000000E-01  8.00000000E-01  8.50000000E-01
  8.50000000E-01  8.50000000E-01  8.00000000E-01  8.50000000E-01  8.50000000E-01
  8.50000000E-01  8.00000000E-01  8.50000000E-01  8.50000000E-01  8.50000000E-01
  8.00000000E-01  8.50000000E-01  8.50000000E-01  8.50000000E-01  8.00000000E-01
  8.50000000E-01  8.50000000E-01  8.50000000E-01  8.00000000E-01  8.50000000E-01
  8.50000000E-01  8.50000000E-01  8.00000000E-01  8.50000000E-01  8.50000000E-01
  8.50000000E-01  8.00000000E-01  8.50000000E-01  8.50000000E-01  8.50000000E-01
  8.00000000E-01  8.50000000E-01  8.50000000E-01  8.50000000E-01  8.00000000E-01
  8.50000000E-01  8.50000000E-01  8.50000000E-01  8.00000000E-01  8.50000000E-01
  8.50000000E-01  8.50000000E-01  8.00000000E-01  8.50000000E-01  8.50000000E-01
  8.50000000E-01  8.00000000E-01  8.50000000E-01  8.50000000E-01  8.50000000E-01
  8.00000000E-01  8.50000000E-01  8.50000000E-01  8.50000000E-01  8.00000000E-01
  8.50000000E-01  8.50000000E-01  8.50000000E-01  8.00000000E-01  8.50000000E-01
  8.50000000E-01  8.50000000E-01  8.00000000E-01  8.50000000E-01  8.50000000E-01
  8.50000000E-01  8.00000000E-01  8.50000000E-01  8.50000000E-01  8.50000000E-01
  8.00000000E-01  8.50000000E-01  8.50000000E-01  8.50000000E-01  8.00000000E-01
  8.50000000E-01  8.50000000E-01  8.50000000E-01  8.00000000E-01  8.50000000E-01
  8.50000000E-01  8.50000000E-01  8.00000000E-01  8.50000000E-01  8.50000000E-01
  8.50000000E-01  8.00000000E-01  8.50000000E-01  8.50000000E-01  8.50000000E-01
  8.00000000E-01  8.50000000E-01  8.50000000E-01  8.50000000E-01  8.00000000E-01
  8.50000000E-01  8.50000000E-01  8.50000000E-01  8.00000000E-01  8.50000000E-01
  8.50000000E-01  8.50000000E-01  8.00000000E-01  8.50000000E-01  8.50000000E-01
  8.50000000E-01  8.00000000E-01  8.50000000E-01  8.50000000E-01  8.50000000E-01
  8.00000000E-01  8.50000000E-01  8.50000000E-01  8.50000000E-01  8.00000000E-01
  8.50000000E-01  8.50000000E-01  8.50000000E-01  8.00000000E-01  8.50000000E-01
  8.50000000E-01  8.50000000E-01  8.00000000E-01  8.50000000E-01  8.50000000E-01
  8.50000000E-01  8.00000000E-01  8.50000000E-01  8.50000000E-01  8.50000000E-01
  8.00000000E-01  8.50000000E-01  8.50000000E-01  8.50000000E-01  8.00000000E-01
  8.50000000E-01  8.50000000E-01  8.50000000E-01  8.00000000E-01  8.50000000E-01
  8.50000000E-01  8.50000000E-01  8.00000000E-01  8.50000000E-01  8.50000000E-01
  8.50000000E-01  8.00000000E-01  8.50000000E-01  8.50000000E-01  8.50000000E-01
  8.00000000E-01  8.50000000E-01  8.50000000E-01  8.50000000E-01  8.00000000E-01
  8.50000000E-01  8.50000000E-01  8.50000000E-01  8.00000000E-01  8.50000000E-01
  8.50000000E-01  8.50000000E-01  8.00000000E-01  8.50000000E-01  8.50000000E-01
  8.50000000E-01  8.00000000E-01  8.50000000E-01  8.50000000E-01  8.50000000E-01
  8.00000000E-01  8.50000000E-01  8.50000000E-01  8.50000000E-01  8.00000000E-01
  8.50000000E-01  8.50000000E-01  8.50000000E-01  8.00000000E-01  8.50000000E-01
  8.50000000E-01  8.50000000E-01  8.00000000E-01  8.50000000E-01  8.50000000E-01
  8.50000000E-01  8.00000000E-01  8.50000000E-01  8.50000000E-01  8.50000000E-01
  8.00000000E-01  8.50000000E-01  8.50000000E-01  8.50000000E-01  8.00000000E-01
  8.50000000E-01  8.50000000E-01  8.50000000E-01  8.00000000E-01  8.50000000E-01
  8.50000000E-01  8.50000000E-01  8.00000000E-01  8.50000000E-01  8.50000000E-01
  8.50000000E-01  8.00000000E-01  8.50000000E-01  8.50000000E-01  8.50000000E-01
  8.00000000E-01  8.50000000E-01  8.50000000E-01  8.50000000E-01  8.00000000E-01
  8.50000000E-01  8.50000000E-01  8.50000000E-01  8.00000000E-01  8.50000000E-01
  8.50000000E-01  8.50000000E-01  8.00000000E-01  8.50000000E-01  8.50000000E-01
  8.50000000E-01  8.00000000E-01  8.50000000E-01  8.50000000E-01  8.50000000E-01
  8.00000000E-01  8.50000000E-01  8.50000000E-01  8.50000000E-01  8.00000000E-01
  8.50000000E-01  8.50000000E-01  8.50000000E-01  8.00000000E-01  8.50000000E-01
  8.50000000E-01  8.50000000E-01  8.00000000E-01  8.50000000E-01  8.50000000E-01
  8.50000000E-01  8.00000000E-01  8.50000000E-01  8.50000000E-01  8.50000000E-01
  8.00000000E-01  8.50000000E-01  8.50000000E-01  8.50000000E-01  8.00000000E-01
  8.50000000E-01  8.50000000E-01  8.50000000E-01  8.00000000E-01  8.50000000E-01
  8.50000000E-01  8.50000000E-01  8.00000000E-01  8.50000000E-01  8.50000000E-01
  8.50000000E-01  8.00000000E-01  8.50000000E-01  8.50000000E-01  8.50000000E-01
  8.00000000E-01  8.50000000E-01  8.50000000E-01  8.50000000E-01  8.00000000E-01
  8.50000000E-01  8.50000000E-01  8.50000000E-01  8.00000000E-01  8.50000000E-01
  8.50000000E-01  8.50000000E-01  8.00000000E-01  8.50000000E-01  8.50000000E-01
  8.50000000E-01  8.00000000E-01  8.50000000E-01  8.50000000E-01  8.50000000E-01
  8.00000000E-01  8.50000000E-01  8.50000000E-01  8.50000000E-01  8.00000000E-01
  8.50000000E-01  8.50000000E-01  8.50000000E-01  8.00000000E-01  8.50000000E-01
  8.50000000E-01  8.50000000E-01  8.00000000E-01  8.50000000E-01  8.50000000E-01
  8.50000000E-01  8.00000000E-01  8.50000000E-01  8.50000000E-01  8.50000000E-01
  8.00000000E-01  8.50000000E-01  8.50000000E-01  8.50000000E-01  8.00000000E-01
  8.50000000E-01  8.50000000E-01  8.50000000E-01  8.00000000E-01  8.50000000E-01
  8.50000000E-01  8.50000000E-01  8.00000000E-01  8.50000000E-01  8.50000000E-01
  8.50000000E-01  8.00000000E-01  8.50000000E-01  8.50000000E-01  8.50000000E-01
  8.00000000E-01  8.50000000E-01  8.50000000E-01  8.50000000E-01  8.00000000E-01
  8.50000000E-01  8.50000000E-01  8.50000000E-01  8.00000000E-01  8.50000000E-01
  8.50000000E-01  8.50000000E-01  8.00000000E-01  8.50000000E-01  8.50000000E-01
  8.50000000E-01  8.00000000E-01  8.50000000E-01  8.50000000E-01  8.50000000E-01
  8.00000000E-01  8.50000000E-01  8.50000000E-01  8.50000000E-01  8.00000000E-01
  8.50000000E-01  8.50000000E-01  8.50000000E-01  8.00000000E-01  8.50000000E-01
  8.50000000E-01  8.50000000E-01  8.00000000E-01  8.50000000E-01  8.50000000E-01
  8.50000000E-01  8.00000000E-01  8.50000000E-01  8.50000000E-01  8.50000000E-01
  8.00000000E-01  8.50000000E-01  8.50000000E-01  8.50000000E-01  8.00000000E-01
  8.50000000E-01  8.50000000E-01  8.50000000E-01  8.00000000E-01  8.50000000E-01
  8.50000000E-01  8.50000000E-01  8.00000000E-01  8.50000000E-01  8.50000000E-01
  8.50000000E-01  8.00000000E-01  8.50000000E-01  8.50000000E-01  8.50000000E-01
  8.00000000E-01  8.50000000E-01  8.50000000E-01  8.50000000E-01  8.00000000E-01
  8.50000000E-01  8.50000000E-01  8.50000000E-01  8.00000000E-01  8.50000000E-01
  8.50000000E-01  8.50000000E-01  8.00000000E-01  8.50000000E-01  8.50000000E-01
  8.50000000E-01  8.00000000E-01  8.50000000E-01  8.50000000E-01  8.50000000E-01
  8.00000000E-01  8.50000000E-01  8.50000000E-01  8.50000000E-01  8.00000000E-01
  8.50000000E-01  8.50000000E-01  8.50000000E-01  8.00000000E-01  8.50000000E-01
  8.50000000E-01  8.50000000E-01  8.00000000E-01  8.50000000E-01  8.50000000E-01
  8.50000000E-01  8.00000000E-01  8.50000000E-01  8.50000000E-01  8.50000000E-01
  8.00000000E-01  8.50000000E-01  8.50000000E-01  8.50000000E-01  8.00000000E-01
  8.50000000E-01  8.50000000E-01  8.50000000E-01  8.00000000E-01  8.50000000E-01
  8.50000000E-01  8.50000000E-01  8.00000000E-01  8.50000000E-01  8.50000000E-01
  8.50000000E-01  8.00000000E-01  8.50000000E-01  8.50000000E-01  8.50000000E-01
  8.00000000E-01  8.50000000E-01  8.50000000E-01  8.50000000E-01  8.00000000E-01
  8.50000000E-01  8.50000000E-01  8.50000000E-01  8.00000000E-01  8.50000000E-01
  8.50000000E-01  8.50000000E-01  8.00000000E-01  8.50000000E-01  8.50000000E-01
  8.50000000E-01  8.00000000E-01  8.50000000E-01  8.50000000E-01  8.50000000E-01
  8.00000000E-01  8.50000000E-01  8.50000000E-01  8.50000000E-01  8.00000000E-01
  8.50000000E-01  8.50000000E-01  8.50000000E-01  8.00000000E-01  8.50000000E-01
  8.50000000E-01  8.50000000E-01  8.00000000E-01  8.50000000E-01  8.50000000E-01
  8.50000000E-01  8.00000000E-01  8.50000000E-01  8.50000000E-01  8.50000000E-01
  8.00000000E-01  8.50000000E-01  8.50000000E-01  8.50000000E-01  8.00000000E-01
  8.50000000E-01  8.50000000E-01  8.50000000E-01  8.00000000E-01  8.50000000E-01
  8.50000000E-01  8.50000000E-01  8.00000000E-01  8.50000000E-01  8.50000000E-01
  8.50000000E-01  8.00000000E-01  8.50000000E-01  8.50000000E-01  8.50000000E-01
  8.00000000E-01  8.50000000E-01  8.50000000E-01  8.50000000E-01  8.00000000E-01
  8.50000000E-01  8.50000000E-01  8.50000000E-01  8.00000000E-01  8.50000000E-01
  8.50000000E-01  8.50000000E-01  8.00000000E-01  8.50000000E-01  8.50000000E-01
  8.50000000E-01  8.00000000E-01  8.50000000E-01  8.50000000E-01  8.50000000E-01
  8.00000000E-01  8.50000000E-01  8.50000000E-01  8.50000000E-01  8.00000000E-01
  8.50000000E-01  8.50000000E-01  8.50000000E-01  8.00000000E-01  8.50000000E-01
  8.50000000E-01  8.50000000E-01  8.00000000E-01  8.50000000E-01  8.50000000E-01
  8.50000000E-01  8.00000000E-01  8.50000000E-01  8.50000000E-01  8.50000000E-01
  8.00000000E-01  8.50000000E-01  8.50000000E-01  8.50000000E-01  8.00000000E-01
  8.50000000E-01  8.50000000E-01  8.50000000E-01  8.00000000E-01  8.50000000E-01
  8.50000000E-01  8.50000000E-01  8.00000000E-01  8.50000000E-01  8.50000000E-01
  8.50000000E-01  8.00000000E-01  8.50000000E-01  8.50000000E-01  8.50000000E-01
  8.00000000E-01  8.50000000E-01  8.50000000E-01  8.50000000E-01  8.00000000E-01
  8.50000000E-01  8.50000000E-01  8.50000000E-01  8.00000000E-01  8.50000000E-01
  8.50000000E-01  8.50000000E-01  8.00000000E-01  8.50000000E-01  8.50000000E-01
  8.50000000E-01  8.00000000E-01  8.50000000E-01  8.50000000E-01  8.50000000E-01
  8.00000000E-01  8.50000000E-01  8.50000000E-01  8.50000000E-01  8.00000000E-01
  8.50000000E-01  8.50000000E-01  8.50000000E-01  8.00000000E-01  8.50000000E-01
  8.50000000E-01  8.50000000E-01  8.00000000E-01  8.50000000E-01  8.50000000E-01
  8.50000000E-01  8.00000000E-01  8.50000000E-01  8.50000000E-01  8.50000000E-01
  8.00000000E-01  8.50000000E-01  8.50000000E-01  8.50000000E-01  8.00000000E-01
  8.50000000E-01  8.50000000E-01  8.50000000E-01  8.00000000E-01  8.50000000E-01
  8.50000000E-01  8.50000000E-01  8.00000000E-01  8.50000000E-01  8.50000000E-01
  8.50000000E-01  8.00000000E-01  8.50000000E-01  8.50000000E-01  8.50000000E-01
  8.00000000E-01  8.50000000E-01  8.50000000E-01  8.50000000E-01  8.00000000E-01
  8.50000000E-01  8.50000000E-01  8.50000000E-01  8.00000000E-01  8.50000000E-01
  8.50000000E-01  8.50000000E-01  8.00000000E-01  8.50000000E-01  8.50000000E-01
  8.50000000E-01  8.00000000E-01  8.50000000E-01  8.50000000E-01  8.50000000E-01
  8.00000000E-01  8.50000000E-01  8.50000000E-01  8.50000000E-01  8.00000000E-01
  8.50000000E-01  8.50000000E-01  8.50000000E-01  8.00000000E-01  8.50000000E-01
  8.50000000E-01  8.50000000E-01  8.00000000E-01  8.50000000E-01  8.50000000E-01
  8.50000000E-01  8.00000000E-01  8.50000000E-01  8.50000000E-01  8.50000000E-01
  8.00000000E-01  8.50000000E-01  8.50000000E-01  8.50000000E-01  8.00000000E-01
  8.50000000E-01  8.50000000E-01  8.50000000E-01  8.00000000E-01  8.50000000E-01
  8.50000000E-01  8.50000000E-01  8.00000000E-01  8.50000000E-01  8.50000000E-01
  8.50000000E-01  8.00000000E-01  8.50000000E-01  8.50000000E-01  8.50000000E-01
  8.00000000E-01  8.50000000E-01  8.50000000E-01  8.50000000E-01  8.00000000E-01
  8.50000000E-01  8.50000000E-01  8.50000000E-01  8.00000000E-01  8.50000000E-01
  8.50000000E-01  8.50000000E-01  8.00000000E-01  8.50000000E-01  8.50000000E-01
  8.50000000E-01  8.00000000E-01  8.50000000E-01  8.50000000E-01  8.50000000E-01
  8.00000000E-01  8.50000000E-01  8.50000000E-01  8.50000000E-01  8.00000000E-01
  8.50000000E-01  8.50000000E-01  8.50000000E-01  8.00000000E-01  8.50000000E-01
  8.50000000E-01  8.50000000E-01  8.00000000E-01  8.50000000E-01  8.50000000E-01
  8.50000000E-01  8.00000000E-01  8.50000000E-01  8.50000000E-01  8.50000000E-01
  8.00000000E-01  8.50000000E-01  8.50000000E-01  8.50000000E-01  8.00000000E-01
  8.50000000E-01  8.50000000E-01  8.50000000E-01  8.00000000E-01  8.50000000E-01
  8.50000000E-01  8.50000000E-01  8.00000000E-01  8.50000000E-01  8.50000000E-01
  8.50000000E-01  8.00000000E-01  8.50000000E-01  8.50000000E-01  8.50000000E-01
  8.00000000E-01  8.50000000E-01  8.50000000E-01  8.50000000E-01  8.00000000E-01
  8.50000000E-01  8.50000000E-01  8.50000000E-01  8.00000000E-01  8.50000000E-01
  8.50000000E-01  8.50000000E-01  8.00000000E-01  8.50000000E-01  8.50000000E-01
  8.50000000E-01  8.00000000E-01  8.50000000E-01  8.50000000E-01  8.50000000E-01
  8.00000000E-01  8.50000000E-01  8.50000000E-01  8.50000000E-01  8.00000000E-01
  8.50000000E-01  8.50000000E-01  8.50000000E-01  8.00000000E-01  8.50000000E-01
  8.50000000E-01  8.50000000E-01  8.00000000E-01  8.50000000E-01  8.50000000E-01
  8.50000000E-01  8.00000000E-01  8.50000000E-01  8.50000000E-01  8.50000000E-01
  8.00000000E-01  8.50000000E-01  8.50000000E-01  8.50000000E-01  8.00000000E-01
  8.50000000E-01  8.50000000E-01  8.50000000E-01  8.00000000E-01  8.50000000E-01
  8.50000000E-01  8.50000000E-01  8.00000000E-01  8.50000000E-01  8.50000000E-01
  8.50000000E-01  8.00000000E-01  8.50000000E-01  8.50000000E-01  8.50000000E-01
  8.00000000E-01  8.50000000E-01  8.50000000E-01  8.50000000E-01  8.00000000E-01
  8.50000000E-01  8.50000000E-01  8.50000000E-01  8.00000000E-01  8.50000000E-01
  8.50000000E-01  8.50000000E-01  8.00000000E-01  8.50000000E-01  8.50000000E-01
  8.50000000E-01  8.00000000E-01  8.50000000E-01  8.50000000E-01  8.50000000E-01
  8.00000000E-01  8.50000000E-01  8.50000000E-01  8.50000000E-01  8.00000000E-01
  8.50000000E-01  8.50000000E-01  8.50000000E-01  8.00000000E-01  8.50000000E-01
  8.50000000E-01  8.50000000E-01  8.00000000E-01  8.50000000E-01  8.50000000E-01
  8.50000000E-01  8.00000000E-01  8.50000000E-01  8.50000000E-01  8.50000000E-01
  8.00000000E-01  8.50000000E-01  8.50000000E-01  8.50000000E-01  8.00000000E-01
  8.50000000E-01  8.50000000E-01  8.50000000E-01  8.00000000E-01  8.50000000E-01
  8.50000000E-01  8.50000000E-01  8.00000000E-01  8.50000000E-01  8.50000000E-01
  8.50000000E-01  8.00000000E-01  8.50000000E-01  8.50000000E-01  8.50000000E-01
  8.00000000E-01  8.50000000E-01  8.50000000E-01  8.50000000E-01  8.00000000E-01
  8.50000000E-01  8.50000000E-01  8.50000000E-01  8.00000000E-01  8.50000000E-01
  8.50000000E-01  8.50000000E-01  8.00000000E-01  8.50000000E-01  8.50000000E-01
  8.50000000E-01  8.00000000E-01  8.50000000E-01  8.50000000E-01  8.50000000E-01
  8.00000000E-01  8.50000000E-01  8.50000000E-01  8.50000000E-01  8.00000000E-01
  8.50000000E-01  8.50000000E-01  8.50000000E-01  8.00000000E-01  8.50000000E-01
  8.50000000E-01  8.50000000E-01  8.00000000E-01  8.50000000E-01  8.50000000E-01
  8.50000000E-01  8.00000000E-01  8.50000000E-01  8.50000000E-01  8.50000000E-01
  8.00000000E-01  8.50000000E-01  8.50000000E-01  8.50000000E-01  8.00000000E-01
  8.50000000E-01  8.50000000E-01  8.50000000E-01  8.00000000E-01  8.50000000E-01
  8.50000000E-01  8.50000000E-01  8.00000000E-01  8.50000000E-01  8.50000000E-01
  8.50000000E-01  8.00000000E-01  8.50000000E-01  8.50000000E-01  8.50000000E-01
  8.00000000E-01  8.50000000E-01  8.50000000E-01  8.50000000E-01  8.00000000E-01
  8.50000000E-01  8.50000000E-01  8.50000000E-01  8.00000000E-01  8.50000000E-01
  8.50000000E-01  8.50000000E-01  8.00000000E-01  8.50000000E-01  8.50000000E-01
  8.50000000E-01  8.00000000E-01  8.50000000E-01  8.50000000E-01  8.50000000E-01
  8.00000000E-01  8.50000000E-01  8.50000000E-01  8.50000000E-01  8.00000000E-01
  8.50000000E-01  8.50000000E-01  8.50000000E-01  8.00000000E-01  8.50000000E-01
  8.50000000E-01  8.50000000E-01  8.00000000E-01  8.50000000E-01  8.50000000E-01
  8.50000000E-01  8.00000000E-01  8.50000000E-01  8.50000000E-01  8.50000000E-01
  8.00000000E-01  8.50000000E-01  8.50000000E-01  8.50000000E-01  8.00000000E-01
  8.50000000E-01  8.50000000E-01  8.50000000E-01  8.00000000E-01  8.50000000E-01
  8.50000000E-01  8.50000000E-01  8.00000000E-01  8.50000000E-01  8.50000000E-01
  8.50000000E-01  8.00000000E-01  8.50000000E-01  8.50000000E-01  8.50000000E-01
  8.00000000E-01  8.50000000E-01  8.50000000E-01  8.50000000E-01  8.00000000E-01
  8.50000000E-01  8.50000000E-01  8.50000000E-01  8.00000000E-01  8.50000000E-01
  8.50000000E-01  8.50000000E-01  8.00000000E-01  8.50000000E-01  8.50000000E-01
  8.50000000E-01  8.00000000E-01  8.50000000E-01  8.50000000E-01  8.50000000E-01
  8.00000000E-01  8.50000000E-01  8.50000000E-01  8.50000000E-01  8.00000000E-01
  8.50000000E-01  8.50000000E-01  8.50000000E-01  8.00000000E-01  8.50000000E-01
  8.50000000E-01  8.50000000E-01  8.00000000E-01  8.50000000E-01  8.50000000E-01
  8.50000000E-01  8.00000000E-01  8.50000000E-01  8.50000000E-01  8.50000000E-01
  8.00000000E-01  8.50000000E-01  8.50000000E-01  8.50000000E-01  8.00000000E-01
  8.50000000E-01  8.50000000E-01  8.50000000E-01  8.00000000E-01  8.50000000E-01
  8.50000000E-01  8.50000000E-01  8.00000000E-01  8.50000000E-01  8.50000000E-01
  8.50000000E-01  8.00000000E-01  8.50000000E-01  8.50000000E-01  8.50000000E-01
  8.00000000E-01  8.50000000E-01  8.50000000E-01  8.50000000E-01  8.00000000E-01
  8.50000000E-01  8.50000000E-01  8.50000000E-01  8.00000000E-01  8.50000000E-01
  8.50000000E-01  8.50000000E-01  8.00000000E-01  8.50000000E-01  8.50000000E-01
  8.50000000E-01  8.00000000E-01  8.50000000E-01  8.50000000E-01  8.50000000E-01
  8.00000000E-01  8.50000000E-01  8.50000000E-01  8.50000000E-01  8.00000000E-01
  8.50000000E-01  8.50000000E-01  8.50000000E-01  8.00000000E-01  8.50000000E-01
  8.50000000E-01  8.50000000E-01  8.00000000E-01  8.50000000E-01  8.50000000E-01
  8.50000000E-01  8.00000000E-01  8.50000000E-01  8.50000000E-01  8.50000000E-01
  8.00000000E-01  8.50000000E-01  8.50000000E-01  8.50000000E-01  8.00000000E-01
  8.50000000E-01  8.50000000E-01  8.50000000E-01  8.00000000E-01  8.50000000E-01
  8.50000000E-01  8.50000000E-01  8.00000000E-01  8.50000000E-01  8.50000000E-01
  8.50000000E-01  8.00000000E-01  8.50000000E-01  8.50000000E-01  8.50000000E-01
  8.00000000E-01  8.50000000E-01  8.50000000E-01  8.50000000E-01  8.00000000E-01
  8.50000000E-01  8.50000000E-01  8.50000000E-01  8.00000000E-01  8.50000000E-01
  8.50000000E-01  8.50000000E-01  8.00000000E-01  8.50000000E-01  8.50000000E-01
  8.50000000E-01  8.00000000E-01  8.50000000E-01  8.50000000E-01  8.50000000E-01
  8.00000000E-01  8.50000000E-01  8.50000000E-01  8.50000000E-01  8.00000000E-01
  8.50000000E-01  8.50000000E-01  8.50000000E-01  8.00000000E-01  8.50000000E-01
  8.50000000E-01  8.50000000E-01  8.00000000E-01  8.50000000E-01  8.50000000E-01
  8.50000000E-01  8.00000000E-01  8.50000000E-01  8.50000000E-01  8.50000000E-01
  8.00000000E-01  8.50000000E-01  8.50000000E-01  8.50000000E-01  8.00000000E-01
  8.50000000E-01  8.50000000E-01  8.50000000E-01  8.00000000E-01  8.50000000E-01
  8.50000000E-01  8.50000000E-01  8.00000000E-01  8.50000000E-01  8.50000000E-01
  8.50000000E-01  8.00000000E-01  8.50000000E-01  8.50000000E-01  8.50000000E-01
  8.00000000E-01  8.50000000E-01  8.50000000E-01  8.50000000E-01  8.00000000E-01
  8.50000000E-01  8.50000000E-01  8.50000000E-01  8.00000000E-01  8.50000000E-01
  8.50000000E-01  8.50000000E-01  8.00000000E-01  8.50000000E-01  8.50000000E-01
  8.50000000E-01  8.00000000E-01  8.50000000E-01  8.50000000E-01  8.50000000E-01
  8.00000000E-01  8.50000000E-01  8.50000000E-01  8.50000000E-01  8.00000000E-01
  8.50000000E-01  8.50000000E-01  8.50000000E-01  8.00000000E-01  8.50000000E-01
  8.50000000E-01  8.50000000E-01  8.00000000E-01  8.50000000E-01  8.50000000E-01
  8.50000000E-01  8.00000000E-01  8.50000000E-01  8.50000000E-01  8.50000000E-01
  8.00000000E-01  8.50000000E-01  8.50000000E-01  8.50000000E-01  8.00000000E-01
  8.50000000E-01  8.50000000E-01  8.50000000E-01  8.00000000E-01  8.50000000E-01
  8.50000000E-01  8.50000000E-01  8.00000000E-01  8.50000000E-01  8.50000000E-01
  8.50000000E-01  8.00000000E-01  8.50000000E-01  8.50000000E-01  8.50000000E-01
  8.00000000E-01  8.50000000E-01  8.50000000E-01  8.50000000E-01  8.00000000E-01
  8.50000000E-01  8.50000000E-01  8.50000000E-01  8.00000000E-01  8.50000000E-01
  8.50000000E-01  8.50000000E-01  8.00000000E-01  8.50000000E-01  8.50000000E-01
  8.50000000E-01  8.00000000E-01  8.50000000E-01  8.50000000E-01  8.50000000E-01
  8.00000000E-01  8.50000000E-01  8.50000000E-01  8.50000000E-01  8.00000000E-01
  8.50000000E-01  8.50000000E-01  8.50000000E-01  8.00000000E-01  8.50000000E-01
  8.50000000E-01  8.50000000E-01  8.00000000E-01  8.50000000E-01  8.50000000E-01
  8.50000000E-01  8.00000000E-01  8.50000000E-01  8.50000000E-01  8.50000000E-01
  8.00000000E-01  8.50000000E-01  8.50000000E-01  8.50000000E-01  8.00000000E-01
  8.50000000E-01  8.50000000E-01  8.50000000E-01  8.00000000E-01  8.50000000E-01
  8.50000000E-01  8.50000000E-01  8.00000000E-01  8.50000000E-01  8.50000000E-01
  8.50000000E-01  8.00000000E-01  8.50000000E-01  8.50000000E-01  8.50000000E-01
  8.00000000E-01  8.50000000E-01  8.50000000E-01  8.50000000E-01  8.00000000E-01
  8.50000000E-01  8.50000000E-01  8.50000000E-01  8.00000000E-01  8.50000000E-01
  8.50000000E-01  8.50000000E-01  8.00000000E-01  8.50000000E-01  8.50000000E-01
  8.50000000E-01  8.00000000E-01  8.50000000E-01  8.50000000E-01  8.50000000E-01
  8.00000000E-01  8.50000000E-01  8.50000000E-01  8.50000000E-01  8.00000000E-01
  8.50000000E-01  8.50000000E-01  8.50000000E-01  8.00000000E-01  8.50000000E-01
  8.50000000E-01  8.50000000E-01  8.00000000E-01  8.50000000E-01  8.50000000E-01
  8.50000000E-01  8.00000000E-01  8.50000000E-01  8.50000000E-01  8.50000000E-01
  8.00000000E-01  8.50000000E-01  8.50000000E-01  8.50000000E-01  8.00000000E-01
  8.50000000E-01  8.50000000E-01  8.50000000E-01  8.00000000E-01  8.50000000E-01
  8.50000000E-01  8.50000000E-01  8.00000000E-01  8.50000000E-01  8.50000000E-01
  8.50000000E-01  8.00000000E-01  8.50000000E-01  8.50000000E-01  8.50000000E-01
  8.00000000E-01  8.50000000E-01  8.50000000E-01  8.50000000E-01  8.00000000E-01
  8.50000000E-01  8.50000000E-01  8.50000000E-01  8.00000000E-01  8.50000000E-01
  8.50000000E-01  8.50000000E-01  8.00000000E-01  8.50000000E-01  8.50000000E-01
  8.50000000E-01  8.00000000E-01  8.50000000E-01  8.50000000E-01  8.50000000E-01
  8.00000000E-01  8.50000000E-01  8.50000000E-01  8.50000000E-01  8.00000000E-01
  8.50000000E-01  8.50000000E-01  8.50000000E-01  8.00000000E-01  8.50000000E-01
  8.50000000E-01  8.50000000E-01  8.00000000E-01  8.50000000E-01  8.50000000E-01
  8.50000000E-01  8.00000000E-01  8.50000000E-01  8.50000000E-01  8.50000000E-01
  8.00000000E-01  8.50000000E-01  8.50000000E-01  8.50000000E-01  8.00000000E-01
  8.50000000E-01  8.50000000E-01  8.50000000E-01  8.00000000E-01  8.50000000E-01
  8.50000000E-01  8.50000000E-01  8.00000000E-01  8.50000000E-01  8.50000000E-01
  8.50000000E-01  8.00000000E-01  8.50000000E-01  8.50000000E-01  8.50000000E-01
  8.00000000E-01  8.50000000E-01  8.50000000E-01  8.50000000E-01  8.00000000E-01
  8.50000000E-01  8.50000000E-01  8.50000000E-01  8.00000000E-01  8.50000000E-01
  8.50000000E-01  8.50000000E-01  8.00000000E-01  8.50000000E-01  8.50000000E-01
  8.50000000E-01  8.00000000E-01  8.50000000E-01  8.50000000E-01  8.50000000E-01
  8.00000000E-01  8.50000000E-01  8.50000000E-01  8.50000000E-01  8.00000000E-01
  8.50000000E-01  8.50000000E-01  8.50000000E-01  8.00000000E-01  8.50000000E-01
  8.50000000E-01  8.50000000E-01  8.00000000E-01  8.50000000E-01  8.50000000E-01
  8.50000000E-01  8.00000000E-01  8.50000000E-01  8.50000000E-01  8.50000000E-01
  8.00000000E-01  8.50000000E-01  8.50000000E-01  8.50000000E-01  8.00000000E-01
  8.50000000E-01  8.50000000E-01  8.50000000E-01  8.00000000E-01  8.50000000E-01
  8.50000000E-01  8.50000000E-01  8.00000000E-01  8.50000000E-01  8.50000000E-01
  8.50000000E-01  8.00000000E-01  8.50000000E-01  8.50000000E-01  8.50000000E-01
  8.00000000E-01  8.50000000E-01  8.50000000E-01  8.50000000E-01  8.00000000E-01
  8.50000000E-01  8.50000000E-01  8.50000000E-01  8.00000000E-01  8.50000000E-01
  8.50000000E-01  8.50000000E-01  8.00000000E-01  8.50000000E-01  8.50000000E-01
  8.50000000E-01  8.00000000E-01  8.50000000E-01  8.50000000E-01  8.50000000E-01
  8.00000000E-01  8.50000000E-01  8.50000000E-01  8.50000000E-01  8.00000000E-01
  8.50000000E-01  8.50000000E-01  8.50000000E-01  8.00000000E-01  8.50000000E-01
  8.50000000E-01  8.50000000E-01  8.00000000E-01  8.50000000E-01  8.50000000E-01
  8.50000000E-01  8.00000000E-01  8.50000000E-01  8.50000000E-01  8.50000000E-01
  8.00000000E-01  8.50000000E-01  8.50000000E-01  8.50000000E-01  8.00000000E-01
  8.50000000E-01  8.50000000E-01  8.50000000E-01  8.00000000E-01  8.50000000E-01
  8.50000000E-01  8.50000000E-01  8.00000000E-01  8.50000000E-01  8.50000000E-01
  8.50000000E-01  8.00000000E-01  8.50000000E-01  8.50000000E-01  8.50000000E-01
  8.00000000E-01  8.50000000E-01  8.50000000E-01  8.50000000E-01  8.00000000E-01
  8.50000000E-01  8.50000000E-01  8.50000000E-01  8.00000000E-01  8.50000000E-01
  8.50000000E-01  8.50000000E-01  8.00000000E-01  8.50000000E-01  8.50000000E-01
  8.50000000E-01  8.00000000E-01  8.50000000E-01  8.50000000E-01  8.50000000E-01
  8.00000000E-01  8.50000000E-01  8.50000000E-01  8.50000000E-01  8.00000000E-01
  8.50000000E-01  8.50000000E-01  8.50000000E-01  8.00000000E-01  8.50000000E-01
  8.50000000E-01  8.50000000E-01  8.00000000E-01  8.50000000E-01  8.50000000E-01
  8.50000000E-01  8.00000000E-01  8.50000000E-01  8.50000000E-01  8.50000000E-01
  8.00000000E-01  8.50000000E-01  8.50000000E-01  8.50000000E-01  8.00000000E-01
  8.50000000E-01  8.50000000E-01  8.50000000E-01  8.00000000E-01  8.50000000E-01
  8.50000000E-01  8.50000000E-01  8.00000000E-01  8.50000000E-01  8.50000000E-01
  8.50000000E-01  8.00000000E-01  8.50000000E-01  8.50000000E-01  8.50000000E-01
  8.00000000E-01  8.50000000E-01  8.50000000E-01  8.50000000E-01  8.00000000E-01
  8.50000000E-01  8.50000000E-01  8.50000000E-01  8.00000000E-01  8.50000000E-01
  8.50000000E-01  8.50000000E-01  8.00000000E-01  8.50000000E-01  8.50000000E-01
  8.50000000E-01  8.00000000E-01  8.50000000E-01  8.50000000E-01  8.50000000E-01
  8.00000000E-01  8.50000000E-01  8.50000000E-01  8.50000000E-01  8.00000000E-01
  8.50000000E-01  8.50000000E-01  8.50000000E-01  8.00000000E-01  8.50000000E-01
  8.50000000E-01  8.50000000E-01  8.00000000E-01  8.50000000E-01  8.50000000E-01
  8.50000000E-01  8.00000000E-01  8.50000000E-01  8.50000000E-01  8.50000000E-01
  8.00000000E-01  8.50000000E-01  8.50000000E-01  8.50000000E-01  8.00000000E-01
  8.50000000E-01  8.50000000E-01  8.50000000E-01  8.00000000E-01  8.50000000E-01
  8.50000000E-01  8.50000000E-01  8.00000000E-01  8.50000000E-01  8.50000000E-01
  8.50000000E-01  8.00000000E-01  8.50000000E-01  8.50000000E-01  8.50000000E-01
  8.00000000E-01  8.50000000E-01  8.50000000E-01  8.50000000E-01  8.00000000E-01
  8.50000000E-01  8.50000000E-01  8.50000000E-01  8.00000000E-01  8.50000000E-01
  8.50000000E-01  8.50000000E-01  8.00000000E-01  8.50000000E-01  8.50000000E-01
  8.50000000E-01  8.00000000E-01  8.50000000E-01  8.50000000E-01  8.50000000E-01
  8.00000000E-01  8.50000000E-01  8.50000000E-01  8.50000000E-01  8.00000000E-01
  8.50000000E-01  8.50000000E-01  8.50000000E-01  8.00000000E-01  8.50000000E-01
  8.50000000E-01  8.50000000E-01  8.00000000E-01  8.50000000E-01  8.50000000E-01
  8.50000000E-01  8.00000000E-01  8.50000000E-01  8.50000000E-01  8.50000000E-01
  8.00000000E-01  8.50000000E-01  8.50000000E-01  8.50000000E-01  8.00000000E-01
  8.50000000E-01  8.50000000E-01  8.50000000E-01  8.00000000E-01  8.50000000E-01
  8.50000000E-01  8.50000000E-01  8.00000000E-01  8.50000000E-01  8.50000000E-01
  8.50000000E-01  8.00000000E-01  8.50000000E-01  8.50000000E-01  8.50000000E-01
  8.00000000E-01  8.50000000E-01  8.50000000E-01  8.50000000E-01  8.00000000E-01
  8.50000000E-01  8.50000000E-01  8.50000000E-01  8.00000000E-01  8.50000000E-01
  8.50000000E-01  8.50000000E-01  8.00000000E-01  8.50000000E-01  8.50000000E-01
  8.50000000E-01  8.00000000E-01  8.50000000E-01  8.50000000E-01  8.50000000E-01
  8.00000000E-01  8.50000000E-01  8.50000000E-01  8.50000000E-01  8.00000000E-01
  8.50000000E-01  8.50000000E-01  8.50000000E-01  8.00000000E-01  8.50000000E-01
  8.50000000E-01  8.50000000E-01  8.00000000E-01  8.50000000E-01  8.50000000E-01
  8.50000000E-01  8.00000000E-01  8.50000000E-01  8.50000000E-01  8.50000000E-01
  8.00000000E-01  8.50000000E-01  8.50000000E-01  8.50000000E-01  8.00000000E-01
  8.50000000E-01  8.50000000E-01  8.50000000E-01  8.00000000E-01  8.50000000E-01
  8.50000000E-01  8.50000000E-01  8.00000000E-01  8.50000000E-01  8.50000000E-01
  8.50000000E-01  8.00000000E-01  8.50000000E-01  8.50000000E-01  8.50000000E-01
  8.00000000E-01  8.50000000E-01  8.50000000E-01  8.50000000E-01  8.00000000E-01
  8.50000000E-01  8.50000000E-01  8.50000000E-01  8.00000000E-01  8.50000000E-01
  8.50000000E-01  8.50000000E-01  8.00000000E-01  8.50000000E-01  8.50000000E-01
  8.50000000E-01  8.00000000E-01  8.50000000E-01  8.50000000E-01  8.50000000E-01
  8.00000000E-01  8.50000000E-01  8.50000000E-01  8.50000000E-01  8.00000000E-01
  8.50000000E-01  8.50000000E-01  8.50000000E-01  8.00000000E-01  8.50000000E-01
  8.50000000E-01  8.50000000E-01  8.00000000E-01  8.50000000E-01  8.50000000E-01
  8.50000000E-01  8.00000000E-01  8.50000000E-01  8.50000000E-01  8.50000000E-01
  8.00000000E-01  8.50000000E-01  8.50000000E-01  8.50000000E-01  8.00000000E-01
  8.50000000E-01  8.50000000E-01  8.50000000E-01  8.00000000E-01  8.50000000E-01
  8.50000000E-01  8.50000000E-01  8.00000000E-01  8.50000000E-01  8.50000000E-01
  8.50000000E-01  8.00000000E-01  8.50000000E-01  8.50000000E-01  8.50000000E-01
  8.00000000E-01  8.50000000E-01  8.50000000E-01  8.50000000E-01  8.00000000E-01
  8.50000000E-01  8.50000000E-01  8.50000000E-01  8.00000000E-01  8.50000000E-01
  8.50000000E-01  8.50000000E-01  8.00000000E-01  8.50000000E-01  8.50000000E-01
  8.50000000E-01  8.00000000E-01  8.50000000E-01  8.50000000E-01  8.50000000E-01
  8.00000000E-01  8.50000000E-01  8.50000000E-01  8.50000000E-01  8.00000000E-01
  8.50000000E-01  8.50000000E-01  8.50000000E-01  8.00000000E-01  8.50000000E-01
  8.50000000E-01  8.50000000E-01  8.00000000E-01  8.50000000E-01  8.50000000E-01
  8.50000000E-01  8.00000000E-01  8.50000000E-01  8.50000000E-01  8.50000000E-01
  8.00000000E-01  8.50000000E-01  8.50000000E-01  8.50000000E-01  8.00000000E-01
  8.50000000E-01  8.50000000E-01  8.50000000E-01  8.00000000E-01  8.50000000E-01
  8.50000000E-01  8.50000000E-01  8.00000000E-01  8.50000000E-01  8.50000000E-01
  8.50000000E-01  8.00000000E-01  8.50000000E-01  8.50000000E-01  8.50000000E-01
  8.00000000E-01  8.50000000E-01  8.50000000E-01  8.50000000E-01  8.00000000E-01
  8.50000000E-01  8.50000000E-01  8.50000000E-01  8.00000000E-01  8.50000000E-01
  8.50000000E-01  8.50000000E-01  8.00000000E-01  8.50000000E-01  8.50000000E-01
  8.50000000E-01  8.00000000E-01  8.50000000E-01  8.50000000E-01  8.50000000E-01
  8.00000000E-01  8.50000000E-01  8.50000000E-01  8.50000000E-01  8.00000000E-01
  8.50000000E-01  8.50000000E-01  8.50000000E-01  8.00000000E-01  8.50000000E-01
  8.50000000E-01  8.50000000E-01  8.00000000E-01  8.50000000E-01  8.50000000E-01
  8.50000000E-01  8.00000000E-01  8.50000000E-01  8.50000000E-01  8.50000000E-01
  8.00000000E-01  8.50000000E-01  8.50000000E-01  8.50000000E-01  8.00000000E-01
  8.50000000E-01  8.50000000E-01  8.50000000E-01  8.00000000E-01  8.50000000E-01
  8.50000000E-01  8.50000000E-01  8.00000000E-01  8.50000000E-01  8.50000000E-01
  8.50000000E-01  8.00000000E-01  8.50000000E-01  8.50000000E-01  8.50000000E-01
  8.00000000E-01  8.50000000E-01  8.50000000E-01  8.50000000E-01  8.00000000E-01
  8.50000000E-01  8.50000000E-01  8.50000000E-01  8.00000000E-01  8.50000000E-01
  8.50000000E-01  8.50000000E-01  8.00000000E-01  8.50000000E-01  8.50000000E-01
  8.50000000E-01  8.00000000E-01  8.50000000E-01  8.50000000E-01  8.50000000E-01
  8.00000000E-01  8.50000000E-01  8.50000000E-01  8.50000000E-01  8.00000000E-01
  8.50000000E-01  8.50000000E-01  8.50000000E-01  8.00000000E-01  8.50000000E-01
  8.50000000E-01  8.50000000E-01  8.00000000E-01  8.50000000E-01  8.50000000E-01
  8.50000000E-01  8.00000000E-01  8.50000000E-01  8.50000000E-01  8.50000000E-01
  8.00000000E-01  8.50000000E-01  8.50000000E-01  8.50000000E-01  8.00000000E-01
  8.50000000E-01  8.50000000E-01  8.50000000E-01  8.00000000E-01  8.50000000E-01
  8.50000000E-01  8.50000000E-01  8.00000000E-01  8.50000000E-01  8.50000000E-01
  8.50000000E-01  8.00000000E-01  8.50000000E-01  8.50000000E-01  8.50000000E-01
  8.00000000E-01  8.50000000E-01  8.50000000E-01  8.50000000E-01  8.00000000E-01
  8.50000000E-01  8.50000000E-01  8.50000000E-01  8.00000000E-01  8.50000000E-01
  8.50000000E-01  8.50000000E-01  8.00000000E-01  8.50000000E-01  8.50000000E-01
  8.50000000E-01  8.00000000E-01  8.50000000E-01  8.50000000E-01  8.50000000E-01
  8.00000000E-01  8.50000000E-01  8.50000000E-01  8.50000000E-01  8.00000000E-01
  8.50000000E-01  8.50000000E-01  8.50000000E-01  8.00000000E-01  8.50000000E-01
  8.50000000E-01  8.50000000E-01  8.00000000E-01  8.50000000E-01  8.50000000E-01
  8.50000000E-01  8.00000000E-01  8.50000000E-01  8.50000000E-01  8.50000000E-01
  8.00000000E-01  8.50000000E-01  8.50000000E-01  8.50000000E-01  8.00000000E-01
  8.50000000E-01  8.50000000E-01  8.50000000E-01  8.00000000E-01  8.50000000E-01
  8.50000000E-01  8.50000000E-01  8.00000000E-01  8.50000000E-01  8.50000000E-01
  8.50000000E-01  8.00000000E-01  8.50000000E-01  8.50000000E-01  8.50000000E-01
  8.00000000E-01  8.50000000E-01  8.50000000E-01  8.50000000E-01  8.00000000E-01
  8.50000000E-01  8.50000000E-01  8.50000000E-01  8.00000000E-01  8.50000000E-01
  8.50000000E-01  8.50000000E-01  8.00000000E-01  8.50000000E-01  8.50000000E-01
  8.50000000E-01  8.00000000E-01  8.50000000E-01  8.50000000E-01  8.50000000E-01
  8.00000000E-01  8.50000000E-01  8.50000000E-01  8.50000000E-01  8.00000000E-01
  8.50000000E-01  8.50000000E-01  8.50000000E-01  8.00000000E-01  8.50000000E-01
  8.50000000E-01  8.50000000E-01  8.00000000E-01  8.50000000E-01  8.50000000E-01
  8.50000000E-01  8.00000000E-01  8.50000000E-01  8.50000000E-01  8.50000000E-01
  8.00000000E-01  8.50000000E-01  8.50000000E-01  8.50000000E-01  8.00000000E-01
  8.50000000E-01  8.50000000E-01  8.50000000E-01  8.00000000E-01  8.50000000E-01
  8.50000000E-01  8.50000000E-01  8.00000000E-01  8.50000000E-01  8.50000000E-01
  8.50000000E-01  8.00000000E-01  8.50000000E-01  8.50000000E-01  8.50000000E-01
  8.00000000E-01  8.50000000E-01  8.50000000E-01  8.50000000E-01  8.00000000E-01
  8.50000000E-01  8.50000000E-01  8.50000000E-01  8.00000000E-01  8.50000000E-01
  8.50000000E-01  8.50000000E-01  8.00000000E-01  8.50000000E-01  8.50000000E-01
  8.50000000E-01  8.00000000E-01  8.50000000E-01  8.50000000E-01  8.50000000E-01
  8.00000000E-01  8.50000000E-01  8.50000000E-01  8.50000000E-01  8.00000000E-01
  8.50000000E-01  8.50000000E-01  8.50000000E-01  8.00000000E-01  8.50000000E-01
  8.50000000E-01  8.50000000E-01  8.00000000E-01  8.50000000E-01  8.50000000E-01
  8.50000000E-01  8.00000000E-01  8.50000000E-01  8.50000000E-01  8.50000000E-01
  8.00000000E-01  8.50000000E-01  8.50000000E-01  8.50000000E-01  8.00000000E-01
  8.50000000E-01  8.50000000E-01  8.50000000E-01  8.00000000E-01  8.50000000E-01
  8.50000000E-01  8.50000000E-01  8.00000000E-01  8.50000000E-01  8.50000000E-01
  8.50000000E-01  8.00000000E-01  8.50000000E-01  8.50000000E-01  8.50000000E-01
  8.00000000E-01  8.50000000E-01  8.50000000E-01  8.50000000E-01  8.00000000E-01
  8.50000000E-01  8.50000000E-01  8.50000000E-01  8.00000000E-01  8.50000000E-01
  8.50000000E-01  8.50000000E-01  8.00000000E-01  8.50000000E-01  8.50000000E-01
  8.50000000E-01  8.00000000E-01  8.50000000E-01  8.50000000E-01  8.50000000E-01
  8.00000000E-01  8.50000000E-01  8.50000000E-01  8.50000000E-01  8.00000000E-01
  8.50000000E-01  8.50000000E-01  8.50000000E-01  8.00000000E-01  8.50000000E-01
  8.50000000E-01  8.50000000E-01  8.00000000E-01  8.50000000E-01  8.50000000E-01
  8.50000000E-01  8.00000000E-01  8.50000000E-01  8.50000000E-01  8.50000000E-01
  8.00000000E-01  8.50000000E-01  8.50000000E-01  8.50000000E-01  8.00000000E-01
  8.50000000E-01  8.50000000E-01  8.50000000E-01  8.00000000E-01  8.50000000E-01
  8.50000000E-01  8.50000000E-01  8.00000000E-01  8.50000000E-01  8.50000000E-01
  8.50000000E-01  8.00000000E-01  8.50000000E-01  8.50000000E-01  8.50000000E-01
  8.00000000E-01  8.50000000E-01  8.50000000E-01  8.50000000E-01  8.00000000E-01
  8.50000000E-01  8.50000000E-01  8.50000000E-01  8.00000000E-01  8.50000000E-01
  8.50000000E-01  8.50000000E-01  8.00000000E-01  8.50000000E-01  8.50000000E-01
  8.50000000E-01  8.00000000E-01  8.50000000E-01  8.50000000E-01  8.50000000E-01
  8.00000000E-01  8.50000000E-01  8.50000000E-01  8.50000000E-01  8.00000000E-01
  8.50000000E-01  8.50000000E-01  8.50000000E-01  8.00000000E-01  8.50000000E-01
  8.50000000E-01  8.50000000E-01  8.00000000E-01  8.50000000E-01  8.50000000E-01
  8.50000000E-01  8.00000000E-01  8.50000000E-01  8.50000000E-01  8.50000000E-01
  8.00000000E-01  8.50000000E-01  8.50000000E-01  8.50000000E-01  8.00000000E-01
  8.50000000E-01  8.50000000E-01  8.50000000E-01  8.00000000E-01  8.50000000E-01
  8.50000000E-01  8.50000000E-01  8.00000000E-01  8.50000000E-01  8.50000000E-01
  8.50000000E-01  8.00000000E-01  8.50000000E-01  8.50000000E-01  8.50000000E-01
  8.00000000E-01  8.50000000E-01  8.50000000E-01  8.50000000E-01  8.00000000E-01
  8.50000000E-01  8.50000000E-01  8.50000000E-01  8.00000000E-01  8.50000000E-01
  8.50000000E-01  8.50000000E-01  8.00000000E-01  8.50000000E-01  8.50000000E-01
  8.50000000E-01  8.00000000E-01  8.50000000E-01  8.50000000E-01  8.50000000E-01
  8.00000000E-01  8.50000000E-01  8.50000000E-01  8.50000000E-01  8.00000000E-01
  8.50000000E-01  8.50000000E-01  8.50000000E-01  8.00000000E-01  8.50000000E-01
  8.50000000E-01  8.50000000E-01  8.00000000E-01  8.50000000E-01  8.50000000E-01
  8.50000000E-01  8.00000000E-01  8.50000000E-01  8.50000000E-01  8.50000000E-01
  8.00000000E-01  8.50000000E-01  8.50000000E-01  8.50000000E-01  8.00000000E-01
  8.50000000E-01  8.50000000E-01  8.50000000E-01  8.00000000E-01  8.50000000E-01
  8.50000000E-01  8.50000000E-01  8.00000000E-01  8.50000000E-01  8.50000000E-01
  8.50000000E-01  8.00000000E-01  8.50000000E-01  8.50000000E-01  8.50000000E-01
  8.00000000E-01  8.50000000E-01  8.50000000E-01  8.50000000E-01  8.00000000E-01
  8.50000000E-01  8.50000000E-01  8.50000000E-01  8.00000000E-01  8.50000000E-01
  8.50000000E-01  8.50000000E-01  8.00000000E-01  8.50000000E-01  8.50000000E-01
  8.50000000E-01  8.00000000E-01  8.50000000E-01  8.50000000E-01  8.50000000E-01
  8.00000000E-01  8.50000000E-01  8.50000000E-01  8.50000000E-01  8.00000000E-01
  8.50000000E-01  8.50000000E-01  8.50000000E-01  8.00000000E-01  8.50000000E-01
  8.50000000E-01  8.50000000E-01  8.00000000E-01  8.50000000E-01  8.50000000E-01
  8.50000000E-01  8.00000000E-01  8.50000000E-01  8.50000000E-01  8.50000000E-01
  8.00000000E-01  8.50000000E-01  8.50000000E-01  8.50000000E-01  8.00000000E-01
  8.50000000E-01  8.50000000E-01  8.50000000E-01  8.00000000E-01  8.50000000E-01
  8.50000000E-01  8.50000000E-01  8.00000000E-01  8.50000000E-01  8.50000000E-01
  8.50000000E-01  8.00000000E-01  8.50000000E-01  8.50000000E-01  8.50000000E-01
  8.00000000E-01  8.50000000E-01  8.50000000E-01  8.50000000E-01  8.00000000E-01
  8.50000000E-01  8.50000000E-01  8.50000000E-01  8.00000000E-01  8.50000000E-01
  8.50000000E-01  8.50000000E-01  8.00000000E-01  8.50000000E-01  8.50000000E-01
  8.50000000E-01  8.00000000E-01  8.50000000E-01  8.50000000E-01  8.50000000E-01
  8.00000000E-01  8.50000000E-01  8.50000000E-01  8.50000000E-01  8.00000000E-01
  8.50000000E-01  8.50000000E-01  8.50000000E-01  8.00000000E-01  8.50000000E-01
  8.50000000E-01  8.50000000E-01  8.00000000E-01  8.50000000E-01  8.50000000E-01
  8.50000000E-01  8.00000000E-01  8.50000000E-01  8.50000000E-01  8.50000000E-01
  8.00000000E-01  8.50000000E-01  8.50000000E-01  8.50000000E-01  8.00000000E-01
  8.50000000E-01  8.50000000E-01  8.50000000E-01  8.00000000E-01  8.50000000E-01
  8.50000000E-01  8.50000000E-01  8.00000000E-01  8.50000000E-01  8.50000000E-01
  8.50000000E-01  8.00000000E-01  8.50000000E-01  8.50000000E-01  8.50000000E-01
  8.00000000E-01  8.50000000E-01  8.50000000E-01  8.50000000E-01  8.00000000E-01
  8.50000000E-01  8.50000000E-01  8.50000000E-01  8.00000000E-01  8.50000000E-01
  8.50000000E-01  8.50000000E-01  8.00000000E-01  8.50000000E-01  8.50000000E-01
  8.50000000E-01  8.00000000E-01  8.50000000E-01  8.50000000E-01  8.50000000E-01
  8.00000000E-01  8.50000000E-01  8.50000000E-01  8.50000000E-01  8.00000000E-01
  8.50000000E-01  8.50000000E-01  8.50000000E-01  8.00000000E-01  8.50000000E-01
  8.50000000E-01  8.50000000E-01  8.00000000E-01  8.50000000E-01  8.50000000E-01
  8.50000000E-01  8.00000000E-01  8.50000000E-01  8.50000000E-01  8.50000000E-01
  8.00000000E-01  8.50000000E-01  8.50000000E-01  8.50000000E-01  8.00000000E-01
  8.50000000E-01  8.50000000E-01  8.50000000E-01  8.00000000E-01  8.50000000E-01
  8.50000000E-01  8.50000000E-01  8.00000000E-01  8.50000000E-01  8.50000000E-01
  8.50000000E-01  8.00000000E-01  8.50000000E-01  8.50000000E-01  8.50000000E-01
  8.00000000E-01  8.50000000E-01  8.50000000E-01  8.50000000E-01  8.00000000E-01
  8.50000000E-01  8.50000000E-01  8.50000000E-01  8.00000000E-01  8.50000000E-01
  8.50000000E-01  8.50000000E-01  8.00000000E-01  8.50000000E-01  8.50000000E-01
  8.50000000E-01  8.00000000E-01  8.50000000E-01  8.50000000E-01  8.50000000E-01
  8.00000000E-01  8.50000000E-01  8.50000000E-01  8.50000000E-01  8.00000000E-01
  8.50000000E-01  8.50000000E-01  8.50000000E-01  8.00000000E-01  8.50000000E-01
  8.50000000E-01  8.50000000E-01  8.00000000E-01  8.50000000E-01  8.50000000E-01
  8.50000000E-01  8.00000000E-01  8.50000000E-01  8.50000000E-01  8.50000000E-01
  8.00000000E-01  8.50000000E-01  8.50000000E-01  8.50000000E-01  8.00000000E-01
  8.50000000E-01  8.50000000E-01  8.50000000E-01  8.00000000E-01  8.50000000E-01
  8.50000000E-01  8.50000000E-01  8.00000000E-01  8.50000000E-01  8.50000000E-01
  8.50000000E-01  8.00000000E-01  8.50000000E-01  8.50000000E-01  8.50000000E-01
  8.00000000E-01  8.50000000E-01  8.50000000E-01  8.50000000E-01  8.00000000E-01
  8.50000000E-01  8.50000000E-01  8.50000000E-01  8.00000000E-01  8.50000000E-01
  8.50000000E-01  8.50000000E-01  8.00000000E-01  8.50000000E-01  8.50000000E-01
  8.50000000E-01  8.00000000E-01  8.50000000E-01  8.50000000E-01  8.50000000E-01
  8.00000000E-01  8.50000000E-01  8.50000000E-01  8.50000000E-01  8.00000000E-01
  8.50000000E-01  8.50000000E-01  8.50000000E-01  8.00000000E-01  8.50000000E-01
  8.50000000E-01  8.50000000E-01  8.00000000E-01  8.50000000E-01  8.50000000E-01
  8.50000000E-01  8.00000000E-01  8.50000000E-01  8.50000000E-01  8.50000000E-01
  8.00000000E-01  8.50000000E-01  8.50000000E-01  8.50000000E-01  8.00000000E-01
  8.50000000E-01  8.50000000E-01  8.50000000E-01  8.00000000E-01  8.50000000E-01
  8.50000000E-01  8.50000000E-01  8.00000000E-01  8.50000000E-01  8.50000000E-01
  8.50000000E-01  8.00000000E-01  8.50000000E-01  8.50000000E-01  8.50000000E-01
  8.00000000E-01  8.50000000E-01  8.50000000E-01  8.50000000E-01  8.00000000E-01
  8.50000000E-01  8.50000000E-01  8.50000000E-01  8.00000000E-01  8.50000000E-01
  8.50000000E-01  8.50000000E-01  8.00000000E-01  8.50000000E-01  8.50000000E-01
  8.50000000E-01  8.00000000E-01  8.50000000E-01  8.50000000E-01  8.50000000E-01
  8.00000000E-01  8.50000000E-01  8.50000000E-01  8.50000000E-01  8.00000000E-01
  8.50000000E-01  8.50000000E-01  8.50000000E-01  8.00000000E-01  8.50000000E-01
  8.50000000E-01  8.50000000E-01  8.00000000E-01  8.50000000E-01  8.50000000E-01
  8.50000000E-01  8.00000000E-01  8.50000000E-01  8.50000000E-01  8.50000000E-01
  8.00000000E-01  8.50000000E-01  8.50000000E-01  8.50000000E-01  8.00000000E-01
  8.50000000E-01  8.50000000E-01  8.50000000E-01  8.00000000E-01  8.50000000E-01
  8.50000000E-01  8.50000000E-01  8.00000000E-01  8.50000000E-01  8.50000000E-01
  8.50000000E-01  8.00000000E-01  8.50000000E-01  8.50000000E-01  8.50000000E-01
  8.00000000E-01  8.50000000E-01  8.50000000E-01  8.50000000E-01  8.00000000E-01
  8.50000000E-01  8.50000000E-01  8.50000000E-01  8.00000000E-01  8.50000000E-01
  8.50000000E-01  8.50000000E-01  8.00000000E-01  8.50000000E-01  8.50000000E-01
  8.50000000E-01  8.00000000E-01  8.50000000E-01  8.50000000E-01  8.50000000E-01
  8.00000000E-01  8.50000000E-01  8.50000000E-01  8.50000000E-01  8.00000000E-01
  8.50000000E-01  8.50000000E-01  8.50000000E-01  8.00000000E-01  8.50000000E-01
  8.50000000E-01  8.50000000E-01  8.00000000E-01  8.50000000E-01  8.50000000E-01
  8.50000000E-01  8.00000000E-01  8.50000000E-01  8.50000000E-01  8.50000000E-01
  8.00000000E-01  8.50000000E-01  8.50000000E-01  8.50000000E-01  8.00000000E-01
  8.50000000E-01  8.50000000E-01  8.50000000E-01  8.00000000E-01  8.50000000E-01
  8.50000000E-01  8.50000000E-01  8.00000000E-01  8.50000000E-01  8.50000000E-01
  8.50000000E-01  8.00000000E-01  8.50000000E-01  8.50000000E-01  8.50000000E-01
  8.00000000E-01  8.50000000E-01  8.50000000E-01  8.50000000E-01  8.00000000E-01
  8.50000000E-01  8.50000000E-01  8.50000000E-01  8.00000000E-01  8.50000000E-01
  8.50000000E-01  8.50000000E-01  8.00000000E-01  8.50000000E-01  8.50000000E-01
  8.50000000E-01  8.00000000E-01  8.50000000E-01  8.50000000E-01  8.50000000E-01
  8.00000000E-01  8.50000000E-01  8.50000000E-01  8.50000000E-01  8.00000000E-01
  8.50000000E-01  8.50000000E-01  8.50000000E-01  8.00000000E-01  8.50000000E-01
  8.50000000E-01  8.50000000E-01  8.00000000E-01  8.50000000E-01  8.50000000E-01
  8.50000000E-01  8.00000000E-01  8.50000000E-01  8.50000000E-01  8.50000000E-01
  8.00000000E-01  8.50000000E-01  8.50000000E-01  8.50000000E-01  8.00000000E-01
  8.50000000E-01  8.50000000E-01  8.50000000E-01  8.00000000E-01  8.50000000E-01
  8.50000000E-01  8.50000000E-01  8.00000000E-01  8.50000000E-01  8.50000000E-01
  8.50000000E-01  8.00000000E-01  8.50000000E-01  8.50000000E-01  8.50000000E-01
  8.00000000E-01  8.50000000E-01  8.50000000E-01  8.50000000E-01  8.00000000E-01
  8.50000000E-01  8.50000000E-01  8.50000000E-01  8.00000000E-01  8.50000000E-01
  8.50000000E-01  8.50000000E-01  8.00000000E-01  8.50000000E-01  8.50000000E-01
  8.50000000E-01  8.00000000E-01  8.50000000E-01  8.50000000E-01  8.50000000E-01
  8.00000000E-01  8.50000000E-01  8.50000000E-01  8.50000000E-01  8.00000000E-01
  8.50000000E-01  8.50000000E-01  8.50000000E-01  8.00000000E-01  8.50000000E-01
  8.50000000E-01  8.50000000E-01  8.00000000E-01  8.50000000E-01  8.50000000E-01
  8.50000000E-01  8.00000000E-01  8.50000000E-01  8.50000000E-01  8.50000000E-01
  8.00000000E-01  8.50000000E-01  8.50000000E-01  8.50000000E-01  8.00000000E-01
  8.50000000E-01  8.50000000E-01  8.50000000E-01  8.00000000E-01  8.50000000E-01
  8.50000000E-01  8.50000000E-01  8.00000000E-01  8.50000000E-01  8.50000000E-01
  8.50000000E-01  8.00000000E-01  8.50000000E-01  8.50000000E-01  8.50000000E-01
  8.00000000E-01  8.50000000E-01  8.50000000E-01  8.50000000E-01  8.00000000E-01
  8.50000000E-01  8.50000000E-01  8.50000000E-01  8.00000000E-01  8.50000000E-01
  8.50000000E-01  8.50000000E-01  8.00000000E-01  8.50000000E-01  8.50000000E-01
  8.50000000E-01  8.00000000E-01  8.50000000E-01  8.50000000E-01  8.50000000E-01
  8.00000000E-01  8.50000000E-01  8.50000000E-01  8.50000000E-01  8.00000000E-01
  8.50000000E-01  8.50000000E-01  8.50000000E-01  8.00000000E-01  8.50000000E-01
  8.50000000E-01  8.50000000E-01  8.00000000E-01  8.50000000E-01  8.50000000E-01
  8.50000000E-01  8.00000000E-01  8.50000000E-01  8.50000000E-01  8.50000000E-01
  8.00000000E-01  8.50000000E-01  8.50000000E-01  8.50000000E-01  8.00000000E-01
  8.50000000E-01  8.50000000E-01  8.50000000E-01  8.00000000E-01  8.50000000E-01
  8.50000000E-01  8.50000000E-01  8.00000000E-01  8.50000000E-01  8.50000000E-01
  8.50000000E-01  8.00000000E-01  8.50000000E-01  8.50000000E-01  8.50000000E-01
  8.00000000E-01  8.50000000E-01  8.50000000E-01  8.50000000E-01  8.00000000E-01
  8.50000000E-01  8.50000000E-01  8.50000000E-01  8.00000000E-01  8.50000000E-01
  8.50000000E-01  8.50000000E-01  8.00000000E-01  8.50000000E-01  8.50000000E-01
  8.50000000E-01  8.00000000E-01  8.50000000E-01  8.50000000E-01  8.50000000E-01
  8.00000000E-01  8.50000000E-01  8.50000000E-01  8.50000000E-01  8.00000000E-01
  8.50000000E-01  8.50000000E-01  8.50000000E-01  8.00000000E-01  8.50000000E-01
  8.50000000E-01  8.50000000E-01  8.00000000E-01  8.50000000E-01  8.50000000E-01
  8.50000000E-01  8.00000000E-01  8.50000000E-01  8.50000000E-01  8.50000000E-01
  8.00000000E-01  8.50000000E-01  8.50000000E-01  8.50000000E-01  8.00000000E-01
  8.50000000E-01  8.50000000E-01  8.50000000E-01  8.00000000E-01  8.50000000E-01
  8.50000000E-01  8.50000000E-01  8.00000000E-01  8.50000000E-01  8.50000000E-01
  8.50000000E-01  8.00000000E-01  8.50000000E-01  8.50000000E-01  8.50000000E-01
  8.00000000E-01  8.50000000E-01  8.50000000E-01  8.50000000E-01  8.00000000E-01
  8.50000000E-01  8.50000000E-01  8.50000000E-01  8.00000000E-01  8.50000000E-01
  8.50000000E-01  8.50000000E-01  8.00000000E-01  8.50000000E-01  8.50000000E-01
  8.50000000E-01  8.00000000E-01  8.50000000E-01  8.50000000E-01  8.50000000E-01
  8.00000000E-01  8.50000000E-01  8.50000000E-01  8.50000000E-01  8.00000000E-01
  8.50000000E-01  8.50000000E-01  8.50000000E-01  8.00000000E-01  8.50000000E-01
  8.50000000E-01  8.50000000E-01  8.00000000E-01  8.50000000E-01  8.50000000E-01
  8.50000000E-01  8.00000000E-01  8.50000000E-01  8.50000000E-01  8.50000000E-01
  8.00000000E-01  8.50000000E-01  8.50000000E-01  8.50000000E-01  8.00000000E-01
  8.50000000E-01  8.50000000E-01  8.50000000E-01  8.00000000E-01  8.50000000E-01
  8.50000000E-01  8.50000000E-01  8.00000000E-01  8.50000000E-01  8.50000000E-01
  8.50000000E-01  8.00000000E-01  8.50000000E-01  8.50000000E-01  8.50000000E-01
  8.00000000E-01  8.50000000E-01  8.50000000E-01  8.50000000E-01  8.00000000E-01
  8.50000000E-01  8.50000000E-01  8.50000000E-01  8.00000000E-01  8.50000000E-01
  8.50000000E-01  8.50000000E-01  8.00000000E-01  8.50000000E-01  8.50000000E-01
  8.50000000E-01  8.00000000E-01  8.50000000E-01  8.50000000E-01  8.50000000E-01
  8.00000000E-01  8.50000000E-01  8.50000000E-01  8.50000000E-01  8.00000000E-01
  8.50000000E-01  8.50000000E-01  8.50000000E-01  8.00000000E-01  8.50000000E-01
  8.50000000E-01  8.50000000E-01  8.00000000E-01  8.50000000E-01  8.50000000E-01
  8.50000000E-01  8.00000000E-01  8.50000000E-01  8.50000000E-01  8.50000000E-01
  8.00000000E-01
%FLAG IPOL
%FORMAT(1I8)
       0
%FLAG CMAP_COUNT
%FORMAT(2I8)
       6       5
%FLAG CMAP_RESOLUTION
%FORMAT(20I4)
  24  24  24  24  24
%FLAG CMAP_PARAMETER_01
%COMMENT Ala CMAP
%FORMAT(8F9.5)
 -0.40490 -0.91563 -0.66011 -0.12395  0.67400  1.66712  2.29819  2.59327
  2.26341  1.68604  1.08454  0.71831 -0.48870 -1.12865 -0.92439 -0.34344
  0.32979  0.59769  0.44008 -0.02411 -0.36985 -0.85317 -0.95648 -1.10907
 -0.57095 -0.51404 -0.20974  0.13143  0.76924  1.59233  2.29037  2.67125
  3.36182  2.18892  2.73567  0.45223 -0.65830 -0.99890 -0.71628  0.42576
  0.53333  0.77654  0.66928  0.32986  0.00178 -0.28339 -0.35321 -0.52818
 -0.04441  1.18495  0.28672  0.49834  1.04770  1.74318  2.42981  2.78424
  2.83854  2.61585  1.87191  0.41363 -0.42895 -0.65692  0.55228  0.27728
  0.92789  1.20682  1.03564  0.82326  0.50898  0.23806  0.20869  0.03162
  0.75270  0.92426  0.87815  1.07435  1.34904  1.95311  2.55584  3.01644
  2.98774  2.58246  1.60744  0.42752 -0.30354 -0.31446 -0.03375  0.52111
  1.16914  1.46572  1.98214  1.17058  0.95531  0.70808  0.78722  1.35766
  1.34685  2.28011  1.28633  1.21465  1.51939  2.05226  2.68560  3.11202
  2.91890  2.50948  1.45835  0.41028 -0.10582 -0.34705 -0.04464  0.55547
  1.11301  1.35870  1.48001  1.35541  1.12115  0.95721  1.12820  1.22585
  2.04850  1.37875  1.14784  1.59064  1.72039  1.78908  3.30313  3.04054
  2.98842  2.41992  1.44654  0.52504 -0.06270 -0.27801  0.87234  0.67598
  0.94307  1.15416  1.20141  1.24110  1.26105  1.20805  1.33113  1.49416
  1.04113  0.90852  0.69483  0.85361  1.26559  1.89687  2.63196  4.14974
  2.85712  2.19037  1.16979  0.05713 -0.34982 -0.13111  1.14408  0.72916
  0.83976  0.87834  2.10017  1.17948  1.17775  1.17175  1.28140  1.31313
  0.56020  0.54579  0.70265  1.11648  1.74498  2.34101  3.30438  2.91742
  2.51820  1.80071  0.63368 -0.12153  0.06806  0.72937  1.10420  1.35758
  1.49864  1.53737  1.46180  1.46294  1.03983  0.71730  0.57013  0.61315
  0.24962  0.58339  1.16380  1.97603  2.89121  3.52557  3.68570  3.11960
  2.13455  1.15056  0.41716  0.25190  0.90813  1.46041  1.72423  2.08326
  2.41176  2.51527  2.40584  2.10326  1.06657  0.24926  0.00000  0.09150
  0.69001  1.45869  2.56017  3.51462  4.36327  4.88489  4.44136  3.31773
  1.94048  1.18640  1.14388  1.38827  1.99448  1.97586  2.10793  2.62567
  3.22808  3.67878  3.65514  2.76833  1.09340 -0.02756 -0.20820  0.11394
  2.04863  3.24028  4.45604  5.33890  5.83417  5.62064  4.51400  3.15546
  2.11289  2.12474  2.51205  2.64497  2.21088  1.89502  2.06746  3.01892
  4.17428  5.04288  4.34485  2.58422  0.91721  0.02839  0.38724  1.08963
  3.86396  5.17448  4.99907  4.71176  4.69475  4.40584  3.94871  3.17716
  3.06333  3.67246  4.29338  2.44448  1.35877  2.75298  2.01318  3.50593
  5.09938  4.27559  3.31646  1.97909  0.94467  0.88095  1.62501  2.60184
  5.48793  4.77064  3.78644  3.36104  3.22046  3.45658  3.76845  4.19099
  4.55308  4.85880  2.97166  1.40450  1.55754  1.01694  2.55251  4.15890
  3.59316  2.89015  2.39954  2.03475  2.02513  2.33480  3.18431  4.21056
  4.70559  3.27912  2.28983  1.85924  2.16582  3.20992  4.49444  5.42412
  5.98035  4.20595  2.46249  1.80286  1.41486  2.22339  3.40125  3.01974
  2.06463  1.98502  2.41985  3.03336  3.42492  3.76647  4.58344  5.51267
  2.34028  1.47026  0.70060  0.67110  1.72673  3.69931  5.49162  6.13923
  5.15665  3.78295  2.61455  3.27648  2.23785  2.65327  2.09930  0.98357
  0.83115  1.73620  2.87719  3.88918  4.40086  4.76522  4.34641  3.40891
  0.89883  0.26728  0.50152  0.12164  1.64744  3.66760  4.84258  4.73428
  4.15359  3.27829  2.48102  2.07496  1.77587  1.23018  0.22862 -0.17811
  0.36837  1.62610  2.66752  3.41452  3.43224  3.08090  2.54957  1.61094
  0.32705 -0.14752 -0.38279 -0.00752  1.31062  2.89019  3.39946  3.48428
  3.29026  2.66680  1.96417  1.33230  0.70261 -0.31922 -0.88675 -0.59803
  0.32944  1.32712  1.88494  2.20282  2.13265  1.82079  1.35338  0.71220
 -0.03270 -0.18304 -0.26783  0.12774  0.88323  1.96743  2.18027  2.30248
  2.25909  1.78219  1.00274  0.24927 -0.80554 -1.41955 -1.17733 -0.22422
  1.19834  1.07092  1.05260  0.95885  0.87757  0.60790  0.30853  0.05046
  0.08873  0.15910  0.22294  0.37757  0.76603  1.36872  1.54866  1.47050
  1.32077  0.90501  0.18754 -0.81180 -1.70050 -1.70896 -0.87307 -0.00331
  0.74981  0.73853  0.55032  0.27050 -0.03313 -0.23059 -0.27425 -0.15004
  1.38786  0.31030  0.31376  0.30435  0.69516  1.26684  1.67665  1.73040
  1.48205  0.83164  0.78021 -1.27092 -1.69247 -1.59919 -0.87185  0.23049
  0.75546  0.68419  0.50548  0.18474 -0.18354 -0.22863 -0.03965  0.15614
  1.13038  0.28339  0.13603  0.26411  0.64582  1.31757  2.01140  2.13005
  1.85723  0.94711 -0.10199 -0.99228 -1.35141 -1.23057 -0.39240  0.63569
  1.03002  0.93699  1.12925  0.94167  0.14233  0.14305  0.34318  0.43742
 -0.18145 -0.18129 -0.36426 -0.02774  0.57160  1.29873  2.16831  2.37053
  1.81288  0.84225 -0.13994 -0.87562 -1.03375 -0.75156  0.33665  1.25211
  1.11963  1.00266  0.72525  0.87651  0.22308  0.12905  0.05647 -0.10214
 -1.05110 -0.75879 -0.79562 -0.36879  0.45648  1.36193  2.25739  2.41888
  1.79507  0.83030 -0.09049 -0.76021 -0.87672 -0.19067  0.64936  0.61856
  0.80179  0.82609  0.68948  0.43884 -0.07529 -0.55654 -0.80787 -1.00697
 -1.21902 -1.03039 -0.88255 -0.32105  0.49201  1.53828  2.43182  2.53201
  1.97701  1.22953  0.40353 -0.11048 -0.00493 -0.40512 -0.63562 -0.14764
  0.47545  0.72229  0.59153  0.14907 -0.47001 -0.96318 -1.22829 -1.35376
%FLAG CMAP_PARAMETER_02
%COMMENT Thr CMAP
%FORMAT(8F9.5)
 -0.04283  0.18161  1.05439  1.03586  1.32935  1.80299  2.39623  2.93329
  3.35590  3.57777  3.50914  1.68053 -0.39179 -0.93314 -0.64171  0.11454
  0.89169  1.19527  1.06990  0.70217  0.45484  0.13072 -0.22279 -0.64142
 -0.89041 -0.23409  0.59158  0.55751  0.83342  1.42045  2.21734  3.18185
  3.46319  3.49225  2.74426  0.52768 -0.99342 -1.26181 -0.82560 -0.00314
  0.89227  1.33370  1.44561  1.23285  0.82708  0.26308 -0.20670 -0.77475
 -0.77931 -0.21773  0.28830  0.08738  0.88718  0.95262  1.87297  3.11301
  3.13164  3.38335  1.75405  0.07220 -1.09686 -1.29826 -0.91328 -0.03110
  0.83011  1.32603  1.46471  1.28387  0.67901  0.23347 -0.27939 -0.69694
 -0.50786 -0.10197  0.06983 -0.17637  0.06763  0.79727  2.28870  2.45490
  2.93902  3.31058  1.67194  0.10975 -0.84848 -0.98572  0.03685 -0.00657
  0.75442  1.26299  1.46733  1.35576  0.81372  0.99506 -0.07250 -0.48345
  0.10617  0.89653  1.01472  0.51464  0.29597  0.97717  1.86119  2.69722
  3.25863  3.09958  1.98360  0.61582 -0.27072 -0.59401 -0.33506  0.34299
  0.94668  1.38632  1.66220  1.70320  1.34813  1.65038  0.62845  0.23924
  0.72889  0.70286  0.50076  0.83792  0.58321  1.37720  2.36342  3.16093
  3.64517  3.46287  2.41734  1.11469  0.11040 -0.17882  0.19884  0.95013
  1.17771  1.51890  1.83892  2.02544  2.52304  1.54809  1.28633  0.94204
  0.44986  0.84132  1.02745  0.44812  0.85346  1.66099  3.07918  3.29722
  3.67845  3.42114  2.31098  0.98281  0.09466  0.19679  0.86348  1.00796
  1.32832  2.00653  1.85879  2.11827  1.96393  1.65524  1.22698  0.89636
 -0.16092 -0.07801  0.36742  0.71079  1.37539  2.07819  2.78900  3.25905
  3.45281  2.88038  1.70415  0.66784  0.52962  0.91246  1.45720  1.70827
  1.96726  2.05687  2.25152  2.69300  1.87895  1.30437  0.67732  0.16373
 -0.59497 -0.15706  0.87552  1.51129  2.23851  2.99679  3.70183  4.34392
  3.11511  2.42327  1.45045  0.88441  1.17792  1.80802  1.89428  2.26153
  2.77283  3.04412  3.18064  3.02688  2.74623  0.78666  0.00000 -0.39235
 -0.35916  0.39315  1.93035  2.81662  3.65827  4.17673  4.19465  4.39392
  2.95304  2.23500  1.84732  1.84010  2.40277  2.39122  2.40836  2.83657
  3.53179  4.15047  4.32346  3.57356  2.03334  0.38577 -0.25814 -0.48010
  0.90231  2.09057  3.75066  4.41890  5.21329  5.48263  4.81077  4.43634
  3.32223  3.13901  3.21301  3.48840  3.14705  2.66483  2.64675  3.40492
  4.64828  5.45938  5.43806  3.77072  1.88593  0.59482  0.32151  0.46925
  2.84623  5.25750  4.89403  4.16235  4.18058  4.25905  4.39881  4.30063
  4.27196  6.52030  5.09605  4.18296  2.87596  2.88864  2.98802  4.36666
  5.97212  5.37136  4.65053  3.41526  2.12052  1.70730  1.91929  2.22274
  5.08537  3.84174  2.58325  2.05517  2.09913  2.76880  4.07500  5.11462
  6.04360  6.80346  4.29068  2.24439  1.89996  1.49269  2.85393  4.25936
  3.68129  3.16198  3.17712  3.18147  3.06025  3.11939  3.59651  4.06844
  2.95875  1.85563  0.75599  0.11936  0.62544  2.16551  4.28956  6.12775
  6.83966  4.68973  2.85927  1.53513  0.96538  1.77312  2.68992  2.31815
  1.47003  2.17589  2.43707  3.45826  3.94968  4.26320  4.42076  3.92590
  1.51557  0.68246 -0.39230 -0.84277  0.04559  2.19451  4.72922  6.95780
  5.40020  3.82779  2.18071  1.35124  1.31049  1.70777  2.34439  0.75006
  0.44316  1.19441  2.39699  3.43932  4.57651  3.99795  3.91034  2.38687
  1.04547  0.30750 -0.67905 -0.95180  0.30970  2.62028  4.94026  5.63370
  4.90897  3.64364  2.33340  1.59932  2.28424  1.95144  0.81385  0.18108
  0.42251  1.36588  2.52927  3.29540  3.55721  3.32056  2.55338  1.75457
  0.60608  0.40626 -0.68634 -0.66328  0.65725  2.77987  4.62553  5.30870
  4.70772  3.57993  2.28608  1.50195  1.07282  0.51037  0.02107  0.04398
  0.78132  1.81193  2.65223  3.05004  3.29539  2.26809  1.28641  0.82302
  0.22184 -0.08581 -0.51518 -0.31218  0.81241  2.48610  4.04241  4.45494
  4.00716  2.85112  1.57321  0.70165 -0.02248 -0.39760 -0.36780  0.52170
  1.52703  2.32447  2.45530  2.32999  1.42990  0.52248  0.32984 -0.22600
 -0.84996 -0.35427 -0.56081 -0.65299 -0.35852  0.31584  1.22816  2.03830
  2.09882  1.37972  0.15727 -0.97399 -1.60803 -1.26567 -0.30784  0.86931
  1.82810  1.99110  1.50663  1.56367 -0.12333 -0.81892 -1.35944 -1.44084
 -0.71561 -0.48676 -0.90866 -1.05252 -0.76509 -0.25592  1.92498  1.39249
  1.46845  0.73400 -0.53906 -1.52276 -1.96454 -1.58268 -0.76508  0.34222
  1.68651  1.37652  1.09906  0.28335 -0.35007  0.36504 -1.18170 -1.09588
 -0.48043 -0.38894 -0.89246 -1.00398 -0.72977  1.23204  2.16417  3.03543
  3.37771  0.82671 -0.30503 -1.26073 -1.67429 -1.44717 -0.71385  1.24900
  2.08698  2.14998  1.83853  0.59083  0.08661 -0.31277 -0.35513 -0.41066
 -0.69004 -0.51194 -0.32955 -0.69400 -0.07464  0.92871  2.01875  2.85811
  2.77128  1.89030  0.66242 -0.07809 -0.10615 -0.38945  0.85104  1.94679
  1.73514  1.93323  1.84929  1.46327  1.10934  0.57034  0.50272  0.41957
 -1.25344 -1.20087 -1.12615 -1.04924 -0.95384 -0.92645 -0.69918 -0.80083
 -0.88788 -1.12156 -1.25754 -1.27281 -1.10861 -1.24222 -1.29319 -1.21080
 -1.23111 -1.26112 -1.27972 -1.28928 -1.24905 -1.24053 -1.23026 -1.26240
 -0.80998 -0.02949  0.66142  0.58819  0.90096  1.83448  2.35428  2.68721
  2.63478  2.57170  2.31832  1.91349  0.98844 -0.33805 -0.39669  0.23525
  0.83158  0.85527  0.58471  0.11117 -0.22091 -0.31767 -0.30232 -0.53977
%FLAG CMAP_PARAMETER_03
%COMMENT Val CMAP
%FORMAT(8F9.5)
 -2.01756 -1.73905 -0.84847 -0.46472  0.56763  1.48277  2.25636  2.19993
  1.90981  1.92836  2.09834  0.40342 -1.69535 -2.90033 -2.50948 -1.57682
 -0.64873 -0.15120 -0.28239 -0.73968 -0.94325 -1.11484 -1.15508 -2.03782
 -1.34105 -1.11818 -0.89418 -0.53817  0.12131  0.92443  1.83452  1.96102
  1.70243  1.69935  1.38644 -0.63952 -2.23904 -2.43926 -2.13880 -1.32255
 -0.42293 -0.09541 -0.22230 -0.57057 -0.62945 -0.77374 -0.70221 -1.35264
 -0.30513 -0.50219 -0.51144 -0.19462  0.20036  0.92772  1.73742  1.94165
  1.66054  1.57483  0.93993 -0.30497 -1.51733 -1.80347 -1.47901 -0.70849
  0.12800  0.42168  0.27324 -0.12805 -0.25468 -0.26176 -0.25964 -0.23486
  0.22080  0.11254 -0.09598 -0.02547  0.36470  1.04764  1.78065  1.94793
  1.64226  1.47878  0.87840  0.00733 -0.78419 -1.14640 -0.91232 -0.13181
  0.55113  0.92382  1.28488  0.38464  0.18091  0.23528  0.21156  0.24920
  0.97024  0.77699  0.11389  0.09390  0.43246  1.27421  2.11132  2.36347
  2.00982  1.63713  1.04527  0.37080 -0.23589 -0.73011 -0.44336  1.26834
  1.79252  1.22128  1.25826  1.13028  0.92625  1.82206  0.89856  0.91110
  1.70991  1.32299  0.33417  0.14944  1.16593  1.49896  3.19090  2.76539
  2.48088  1.89518  1.28911  0.61864  0.01777 -0.14494  0.22396  0.77031
  1.07240  1.26184  1.35849  1.28895  1.97069  1.48297  1.57305  1.85292
  1.48800  1.13328  0.11690  0.29064  0.85784  1.77367  2.59189  2.91705
  2.42216  1.76483  1.79629  0.86281  0.10283  0.37023  0.86569  0.94069
  1.01430  1.21124  1.35219  1.30023  1.22214  1.35322  1.48391  1.69070
  0.67909  0.57713  0.02502  0.46770  1.40409  2.27852  3.49476  2.78640
  1.95403  1.27900  0.55420 -0.02238  1.20682  1.29930  1.52554  1.64336
  1.76775  1.70570  1.67854  1.45650  1.09476  0.82649  1.19884  0.75282
  0.07073  0.30572  0.52146  1.36896  2.48099  3.33540  3.59124  2.88171
  1.76876  1.19799  0.32459  0.32422  0.95308  2.45034  2.37598  2.40673
  2.67534  2.65749  2.51708  2.14912  1.18076  0.39138  0.00000  0.07630
  0.04074  1.54419  1.96416  3.13362  4.31575  4.95477  4.44775  3.11538
  1.50508  0.72125  0.79846  1.33862  2.42257  3.24290  3.12154  3.35226
  3.78456  3.99241  3.82937  2.81100  1.25323  0.16589 -0.28260 -0.12977
  1.12864  3.90130  4.63426  5.77403  6.31577  5.96470  4.91642  3.16778
  2.26973  1.74060  2.27380  2.97981  3.51359  3.19033  3.33677  4.19992
  5.22362  5.87548  4.86276  2.93236  1.19785  0.28507  0.14742  0.63000
  3.72001  6.33863  5.35590  4.29996  4.26654  4.32352  3.98104  3.33460
  2.91813  3.53218  4.29596  4.51641  2.49249  1.90963  2.83865  4.63489
  4.97899  4.16045  3.39890  2.32070  1.48906  1.29139  1.60292  2.24778
  6.00854  3.89247  2.89440  2.55025  2.57681  3.10775  3.92241  4.01712
  4.49403  5.18578  3.70552  2.38215  2.01401  1.59381  3.04997  4.51111
  3.23799  2.70851  2.59259  2.38231  2.40214  2.94886  3.50773  4.54844
  4.51937  2.50940  1.61873  1.24925  1.66350  3.66266  4.55456  5.47628
  6.13567  4.06242  2.85443  2.03944  2.02600  2.52651  3.62142  2.70641
  1.97481  2.07470  2.56879  3.03541  3.69679  4.06367  4.65134  5.55831
  2.88814  0.52779  0.16551  0.26664  1.58420  3.71632  5.64144  6.08480
  4.85665  3.62841  2.86402  2.75331  3.09330  3.73213  2.16268  1.66846
  1.14682  2.60251  3.24104  4.65709  4.40085  4.67183  4.61862  3.96074
  1.69027  0.76750 -0.69979 -0.15185  2.22330  4.17638  5.53096  5.17628
  4.26174  3.52592  3.19619  4.19572  2.94549  1.11204  0.17610  0.05643
  0.98595  2.23581  3.45223  3.88084  3.96450  3.73252  3.28716  2.64029
  1.47850  0.63019 -0.95303 -0.13694  1.54363  3.47985  4.19958  4.05565
  3.90108  3.18085  3.58033  2.62660  2.22083 -0.31386 -0.74356 -0.27479
  1.00826  2.19607  2.74108  2.87658  2.77839  2.65101  2.37288  1.92155
  1.07215  0.66669 -0.89125 -0.20060  1.02999  2.38189  2.91480  2.77764
  2.48398  2.19059  2.01388  1.58231  0.53487 -1.19678 -1.18562 -0.14882
  0.98452  1.69506  1.85226  1.71204  1.57096  1.60872  1.52788  1.43156
  1.07875  1.04590 -0.55118 -0.28378  0.64179  1.53005  2.05887  1.60199
  1.69739  1.25571  1.02661  0.47784 -0.61980 -1.38623 -0.85945  0.33907
  1.15832  1.35313  1.15992  0.81644  0.76079  0.76522  0.89391  1.05876
  1.45117  1.22355  0.18022 -0.22437  0.39219  1.28115  1.89920  1.64643
  1.36145  1.15488  0.69505 -0.03464 -0.80651 -1.04055 -0.39746  0.64416
  1.21429  1.35414  1.10084  0.71349  0.62948  0.72070  1.07327  1.35814
  1.45821  1.01290  0.30532 -0.11668  0.26191  1.81248  2.13486  2.25298
  1.74419  1.24135  0.75222 -0.00108 -0.54822 -0.71040 -0.08108  1.02502
  1.44087  1.54881  1.35073  1.01930  0.87623  1.09706  1.50032  1.74125
  1.24172  0.70146  0.38540  0.25065  0.37446  1.32984  2.22978  2.81617
  2.19013  1.26923  0.57654  0.22218 -0.25813 -0.26505  0.64873  1.84887
  1.79747  1.73430  1.57205  1.21116  1.04895  1.15718  1.33818  1.58324
  0.52985  0.37156  0.33331  0.30703  0.70760  1.27012  2.34003  3.12435
  2.75444  1.71103  0.77398  0.27700  0.07276  0.30492  1.97301  3.06719
  2.42419  1.91835  1.82997  1.59237  1.96213  1.07834  0.58274  0.44102
 -1.78231 -0.90400 -0.83905  0.00646  1.08505  1.99726  2.71747  2.45290
  1.86533  2.24530  1.12274 -0.76075 -1.12759 -1.47736 -1.09815 -1.10064
 -0.11997  0.30194  0.03016 -0.49455 -0.85448 -1.11224 -0.54136 -0.66678
%FLAG CMAP_PARAMETER_04
%COMMENT Lys CMAP
%FORMAT(8F9.5)
 -1.13164 -0.62346 -0.24209 -0.02973  0.48480  1.23694  2.04575  2.29166
  2.02876  1.62703  1.27127  0.35950 -1.42623 -2.05405 -1.64702 -0.75066
  0.09360  0.45285  0.21807 -0.18586 -0.73583 -1.13344 -1.19694 -1.19062
 -0.64060 -0.32893  0.02012  0.02118  0.47137  1.14861  1.91913  2.36069
  2.22229  1.95149  1.20614 -0.57017 -1.75076 -2.03501 -1.58763 -0.64877
  0.30096  0.62023  0.45342  0.04313 -0.46090 -0.79564 -0.82334 -0.74223
 -0.24137 -0.11209  0.08544  0.05425  0.40854  1.14888  2.02651  2.38762
  2.30421  2.65775  0.84980 -0.58949 -1.42718 -1.56969 -1.12474 -0.27600
  0.57048  0.92694  0.75506  0.36313  0.41248 -0.25267 -0.29508 -0.30702
  0.15784  0.16124  0.21528  0.19125  0.52652  1.17640  2.01822  2.39523
  2.25697  1.97743  0.85670 -0.29822 -0.64315 -0.71138 -0.30686  0.45873
  0.81134  1.29671  1.19500  0.84969  0.46708  0.29043  0.21746  0.16500
  0.89392  0.71753  0.57115  0.43890  0.76485  1.44400  2.31824  2.67943
  2.58376  2.16804  1.23014  0.82763 -0.51969 -0.73656 -0.32147  0.44935
  1.20995  1.60156  1.65872  1.41868  1.06413  0.88918  1.40765  0.89807
  1.39127  1.14527  0.83908  0.62088  1.03137  2.44461  3.61122  3.03639
  2.93037  2.34216  1.25412  0.23792 -0.42524 -0.47841  0.12423  0.77695
  1.18318  1.45904  1.64051  1.57482  1.43824  1.35338  1.42422  1.50599
  1.03940  0.78129  0.55141  0.59044  1.11541  1.93195  3.28135  3.10600
  2.87709  2.08673  0.97761 -0.07189 -0.55989 -0.15343  0.59138  0.86483
  1.13795  1.36979  1.55187  1.49198  1.31001  1.19377  1.27168  1.26717
  0.31570  0.32645  0.43538  0.89961  1.65773  2.35060  2.92667  3.00795
  2.52682  1.60328  0.45969  0.23113 -0.28882  1.23655  1.15894  1.54835
  1.88547  1.93525  1.86074  1.72151  1.65432  0.72519  0.57772  0.96376
  0.01270  0.24227  0.76959  1.64854  2.60813  3.46061  3.69061  3.18918
  2.22863  1.15788  0.39483  0.21073  0.68040  2.18832  1.80572  2.24818
  2.70988  2.86880  2.79105  2.41410  2.01156  0.35940  0.00000  0.00646
  0.35073  0.90201  2.00003  3.08122  4.18056  4.93815  4.63514  3.60238
  2.75114  1.43898  1.23584  1.46770  2.07827  2.18651  2.36403  2.96159
  3.67909  4.13912  4.10653  3.18582  1.51669  0.18861 -0.06191  0.04962
  1.53826  2.58483  4.03310  5.05092  6.11295  6.14815  5.20647  3.81976
  2.76531  2.50097  2.69420  2.97134  2.67683  2.45579  2.69794  3.72189
  4.88760  5.73443  5.25225  3.32794  1.50262  0.37839  0.90315  0.93349
  3.53826  4.97003  5.16584  4.77571  4.97699  4.94501  4.73810  4.10406
  3.72549  4.11352  4.26970  3.27545  2.15952  2.71722  2.87070  4.71124
  5.93638  5.07391  4.12244  2.88828  2.59390  1.43687  1.95877  2.78313
  5.77443  4.46997  3.56825  3.21013  3.29175  3.88737  4.64985  4.86020
  5.40449  5.58649  3.52430  1.95498  2.12058  1.64132  3.18061  4.76232
  4.12981  3.48929  3.28524  2.96613  2.82022  3.09461  3.81784  4.80706
  4.81125  3.11064  2.19879  1.79413  2.26340  3.62230  5.03506  6.19526
  6.42134  4.54813  2.74872  2.01212  1.67501  2.46391  3.72853  3.32011
  2.54393  2.64930  4.53517  3.65435  4.11000  4.43677  5.16380  5.36330
  2.40638  1.42733  0.83483  0.72279  1.83113  3.87438  5.88103  6.54537
  5.44021  4.07584  2.89687  2.46565  2.57255  2.85706  2.48850  1.54075
  1.55152  2.30832  3.47039  4.36402  4.62076  5.24285  4.48773  3.44960
  1.10697  0.48844  0.05413  0.22301  1.84021  4.72185  5.44366  5.35532
  4.78976  3.85091  3.07756  2.70321  2.41981  1.79438  0.82855  0.52195
  1.15697  2.28904  3.44297  4.00628  3.92284  3.44623  2.77364  1.79239
  0.57707  0.21457  0.12757  0.11426  1.68939  3.35709  3.67419  3.88209
  3.86371  3.22634  2.49647  1.84377  1.15687  0.09138 -0.36996 -0.04023
  1.02408  2.05775  2.68926  2.74955  2.42499  2.04678  1.55711  1.00697
  0.05163  0.00299 -0.17038  0.08753  1.18689  2.24636  2.73093  2.76323
  2.65887  2.14045  1.40562  0.50704 -0.61236 -1.29634 -1.05969 -0.13291
  0.96124  1.48528  1.46883  1.23917  0.87082  0.57255  0.35700  0.19011
 -0.10233  0.05477 -0.00840  0.09387  0.67551  1.37869  1.72925  1.53428
  1.31553  0.82680  0.14475 -0.97642 -1.85541 -1.92868 -1.09786  0.07237
  0.91454  0.97238  0.58573  0.26675 -0.11967 -0.34550 -0.35246 -0.32802
  0.52160  0.15688 -0.09909 -0.06538  0.41444  1.10954  1.57762  1.58789
  1.28279  0.65634 -0.44715 -1.51329 -2.08018 -1.90600 -1.01779  0.15231
  0.91178  1.43560  0.45842  0.08514 -0.30926 -0.44935 -0.25988 -0.05601
  0.17976  0.55827 -0.34578 -0.27097  0.25407  1.08656  1.80718  1.95109
  1.58890  0.72912 -0.40442 -1.34979 -1.91684 -1.87165 -0.98156  0.28439
  0.89099  0.90274  0.79523  0.40138  0.02081  0.00907  0.23280  0.31097
 -0.44608 -0.50159 -0.63851 -0.46568  0.06284  0.89854  2.27207  2.66185
  2.06789  0.75765 -0.37406 -1.13229 -1.70425 -1.63652 -0.60650  0.74288
  0.97450  0.83959  0.77625  0.54584  0.23025  0.14501  0.19838  0.06330
 -1.11297 -1.28309 -1.07056 -0.72163 -0.11182  1.28275  1.90578  2.41469
  1.97238  0.84092  0.11079 -0.94101 -1.15465 -0.94939  0.64316  0.56647
  0.70355  0.74958  1.63039  0.63838  0.25608  0.41040 -0.50836 -0.80252
 -1.72473 -1.92912 -1.10012 -1.05519 -0.10274  0.90677  2.05671  2.58075
  2.16667  1.05344  0.03573 -0.05773 -0.58287 -1.40318 -1.58072 -0.87231
  0.01980  0.51998  0.63491  0.37020 -0.25344 -0.90749 -1.16574 -1.34771
%FLAG CMAP_PARAMETER_05
%COMMENT Leu CMAP
%FORMAT(8F9.5)
 -0.86694 -0.26821  0.11903  0.36257  0.95573  1.67477  2.43156  2.60365
  2.27204  1.80613  1.46886  1.61233 -0.96663 -1.49770 -1.08239 -0.09973
  0.68400  0.98069  0.74771  0.20585 -0.44627 -0.94569 -1.07455 -1.03710
 -0.32646  0.18654  0.61372  0.67096  1.01304  1.68958  2.59064  2.69380
  2.62711  2.28315  1.55874 -0.12149 -1.21885 -1.44423 -0.97001 -0.05369
  0.80796  1.12834  0.84158  0.41540 -0.05618 -0.48333 -0.57243 -0.49018
 -0.00270  0.44349  0.67720  0.69907  0.96098  1.51827  2.31922  2.59766
  2.46815  2.10040  1.01494 -0.35138 -1.06078 -0.51379 -0.69064  0.13405
  0.94764  1.25044  1.05896  0.70807  1.27955  0.00478 -0.14861 -0.13199
  0.46773  1.06122  0.84151  0.87321  1.53577  2.26717  2.28379  2.61533
  2.48323  2.10062  0.99888 -0.16216 -0.70927 -0.70653 -0.29305  0.40855
  1.21244  1.57878  1.45953  1.15294  0.73992  0.44830  0.51887  0.42642
  1.08264  1.22032  1.01432  0.92883  1.19777  1.89909  2.63517  2.91989
  2.71483  2.15712  1.13870  0.10970 -0.35319 -0.45575 -0.07314  0.71696
  1.39933  1.70190  1.76612  1.54603  1.28907  0.96167  1.05593  0.99887
  1.28886  1.08719  1.25509  0.61945  1.07490  1.93759  3.19207  3.05501
  2.85024  2.25228  1.28855  0.30319 -0.32580 -0.33934  0.94330  1.01391
  1.36742  1.55398  1.68291  1.69903  1.58878  1.35670  1.38167  1.38984
  0.98482  0.77092  0.58293  0.75254  1.33157  2.19094  2.97361  3.31530
  2.98261  2.34181  1.68188  0.20860 -0.18920  0.15129  0.97347  1.18438
  1.41087  2.18263  1.74084  1.83977  2.49337  1.40782  1.29872  1.23230
  0.48495  0.51375  0.72118  1.16071  2.03516  2.76085  3.33781  3.33714
  3.21881  1.91348  0.71654 -0.06047  0.05722  0.95499  1.57463  1.97846
  2.20669  2.25753  2.16240  2.05082  1.46338  0.92763  0.63950  0.52464
  0.07954  0.44680  1.02424  2.02016  2.99245  3.73027  3.90871  3.36270
  2.34980  1.21384  0.31676  0.22259  0.86998  1.74017  2.65575  2.56314
  2.94846  3.04800  2.92362  2.53858  1.53008  0.44000  0.00000 -0.00769
  0.24993  1.09492  2.17567  3.43132  4.50566  5.05694  4.64546  3.50848
  2.15393  1.27464  0.97041  1.34987  2.11323  2.30548  2.56683  3.12183
  3.71616  4.15639  4.02019  3.11381  1.50702  0.51912 -0.20195 -0.08615
  1.52978  2.82371  4.12062  5.09490  6.15608  6.08176  5.03421  3.52597
  2.34959  2.18514  2.44731  2.85399  2.64346  2.42082  2.71715  3.68263
  4.79352  5.66725  5.08137  3.19151  1.34349  0.25042  0.36715  0.82954
  3.49877  5.10429  4.80281  4.54651  4.68704  4.66098  4.37663  3.68363
  3.39535  3.95518  3.96235  2.85930  2.21248  2.20453  2.53736  4.31396
  5.52110  4.69616  3.78755  2.61424  1.52261  1.35018  1.75048  2.53707
  5.65682  4.15269  3.35229  3.00261  3.08500  3.54523  4.16460  4.62833
  5.13779  5.01177  3.02054  1.47096  1.36914  1.36431  2.92161  6.08683
  3.79124  3.26901  3.87628  3.15138  2.56586  2.96443  3.52026  4.83005
  4.54702  3.10593  2.16146  1.79107  2.10872  3.47796  4.87594  5.92625
  6.01846  4.12483  2.27314  1.85210  1.40705  2.31574  3.63083  3.28348
  2.48395  2.41514  2.93210  3.56664  3.83230  4.13078  4.61915  5.21000
  2.54403  1.68952  0.97521  0.88413  2.02670  4.01998  5.83129  6.49399
  5.45501  4.03342  2.72981  3.04219  2.43764  2.97586  2.73313  1.73379
  1.55615  2.30112  3.86657  4.36600  4.57747  4.78312  4.62251  3.65331
  1.39094  0.80730  0.29380  0.53655  2.14327  4.35364  5.64162  5.52871
  4.81227  3.89474  3.02138  2.56961  2.36903  1.91970  1.04584  0.61644
  1.26738  2.48009  3.51320  4.14947  3.98350  3.59513  2.95805  2.05137
  0.59467  0.26702 -0.00118  0.34338  1.95569  3.71282  4.31538  4.26902
  3.93382  3.80334  2.45012  1.80769  1.23485  0.28708 -0.16539  0.11408
  1.10892  2.16939  3.27563  2.90643  2.66635  2.32593  1.63311  1.04332
 -0.00101 -0.07278 -0.15248  0.39936  1.35477  2.58696  2.88424  2.91922
  2.69118  2.08752  1.30318  0.53921 -0.47040 -1.05688 -0.84349  0.07495
  1.13508  1.90971  1.60384  1.52061  1.19284  0.82628  0.49692  0.18749
  0.52653 -0.01117  0.01170  0.35019  0.99208  1.68051  1.85145  1.71415
  1.38754  0.91039  0.24804 -0.73699 -1.51069 -1.53963 -0.72203  0.43100
  1.18026  1.23810  0.97321  0.69525  0.29409 -0.04217 -0.12688 -0.18077
  0.41738  0.42830  0.25395  0.41670  0.84705  1.54378  1.90242  1.75429
  1.39459  0.87970 -0.19758 -1.19662 -1.65765 -1.41581 -0.57110  0.57555
  1.30161  1.37911  1.15311  0.73096  0.18428  0.11942  0.12025  0.23185
  0.51056  0.47767  0.30339  0.39748  0.84570  1.55327  2.29045  2.38960
  1.92281  1.05703  0.33844 -0.94589 -1.40734 -1.22267 -0.28396  0.91594
  1.42889  1.47580  1.35177  1.37396  0.53214  0.53898  0.61490  0.64450
 -0.24761 -0.32226 -0.19849 -0.08985  1.01997  1.40580  2.20658  2.50290
  1.91878  0.83859 -0.21275 -0.98048 -1.44651 -1.19821  0.00869  1.25483
  1.43243  1.66446  1.63593  0.87150  0.53192  0.38847  0.31803  0.05867
 -0.50737 -1.45363 -0.79190  0.11592  0.23743  1.27007  2.22830  3.43018
  2.03991  0.82982 -0.28204 -0.30716 -1.28098 -0.47386  0.89069  1.08272
  1.18900  1.30124  1.20693  0.90441  0.47681 -0.17330 -0.62574 -1.08723
 -1.62255 -1.96136 -0.83933 -0.65406  0.11828  1.42624  2.54120  2.90447
  2.24826  1.86505 -0.18930 -0.85728 -0.87693 -1.06001 -1.16287  0.46816
  0.39155  1.80618  1.14253  0.79781  0.04909 -0.40498 -1.27362 -1.36635
%FLAG CMAP_INDEX
%FORMAT(6I8)
     121     123     125     143     145       4
     107     109     111     121     123       2
      91      93      95     107     109       3
      41      43      45      58      60       5
      31      33      35      41      43       1
      12      14      16      31      33       5
